<?xml version="1.0" ?>
<VTKFile type="UnstructuredGrid" version="0.1" byte_order="LittleEndian">
<UnstructuredGrid>
<Piece NumberOfPoints="20" NumberOfCells="0">
<Points>
<DataArray type="Float32" format="ascii" NumberOfComponents="3">1.126500155771398 1.3152730093973142 8.724715375789627 4.675707788704641 6.18255274966001 3.407248541201478 5.460442068391917 6.584392494093012 9.421746823805364 9.17195858200508 0.8542208902774692 8.022936266832199 0.6936636262762161 0.33796368688450495 1.3030446428784015 1.7138783845161984 9.914985354784253 7.15396143016968 3.7934783393249223 8.90056357294619 0.03087354423473343 3.8197930031766534 1.6261188446152415 1.4537114372098032 4.583879892720818 2.5044091663946184 3.668687966783513 6.409592836727899 9.492413066180394 7.0588281575791285 9.136376450284837 7.9450596172223324 1.3660579907089523 8.837515987408418 1.253668689423018 1.0466591505216523 3.7780384017254725 1.9841146281264457 3.6926478682815276 1.1970205190497325 6.877026393287114 5.166852340084511 5.650190432558375 8.945431045900905 6.457503117458788 6.246803742059292 8.62260447645009 4.614371350363251 1.4764303529120553 3.3709352422905696 0.9329326221563563 8.047988437087087 8.961097371166831 8.557390645118295 4.54585489565227 3.979000654382066 8.544910653585974 4.499471047330009 7.145866013985117 2.891824392644009 </DataArray>
</Points>
<Cells>
<DataArray type="Int32" Name="connectivity" format="ascii">0</DataArray>
<DataArray type="Int32" Name="offsets" format="ascii">0</DataArray>
<DataArray type="UInt8" Name="types" format="ascii">1</DataArray>
</Cells>
<PointData>
<DataArray Name="Points" NumberOfComponents="3" type="Float32" format="ascii">1.126500155771398 1.3152730093973142 8.724715375789627 4.675707788704641 6.18255274966001 3.407248541201478 5.460442068391917 6.584392494093012 9.421746823805364 9.17195858200508 0.8542208902774692 8.022936266832199 0.6936636262762161 0.33796368688450495 1.3030446428784015 1.7138783845161984 9.914985354784253 7.15396143016968 3.7934783393249223 8.90056357294619 0.03087354423473343 3.8197930031766534 1.6261188446152415 1.4537114372098032 4.583879892720818 2.5044091663946184 3.668687966783513 6.409592836727899 9.492413066180394 7.0588281575791285 9.136376450284837 7.9450596172223324 1.3660579907089523 8.837515987408418 1.253668689423018 1.0466591505216523 3.7780384017254725 1.9841146281264457 3.6926478682815276 1.1970205190497325 6.877026393287114 5.166852340084511 5.650190432558375 8.945431045900905 6.457503117458788 6.246803742059292 8.62260447645009 4.614371350363251 1.4764303529120553 3.3709352422905696 0.9329326221563563 8.047988437087087 8.961097371166831 8.557390645118295 4.54585489565227 3.979000654382066 8.544910653585974 4.499471047330009 7.145866013985117 2.891824392644009 </DataArray>
<DataArray Name="forces" NumberOfComponents="3" type="Float32" format="ascii">-0.0827836117791603 -0.08937438981221105 -0.11059117380039726 0.166955625519539 -0.9125825146459356 0.48828048260017715 0.0 0.0 0.0 0.07115687999478293 -0.03867151556301691 0.05750184407440695 -0.12144148416499814 0.059911492080135575 -0.016774438658968674 -0.02666059525299481 0.06355785858318586 0.07129517768424563 0.0 0.0 0.0 -0.0014115738758415566 0.012102558235567905 0.07569044047674393 42.07185116149133 27.163846263510226 -1.2509127675014227 0.4832011631870375 0.2931789059101112 0.3890680504501621 0.0 0.0 0.0 0.12144148416499814 -0.059911492080135575 0.016774438658968674 -42.07043958761549 -27.175948821745795 1.1752223270246787 0.0 0.0 0.0 -0.36825482042373325 -0.3439893873547201 -0.5338849161478837 -0.06242614709097677 0.03377869482373826 0.1928545893436544 0.0 0.0 0.0 -0.014232868634955285 0.08151983341291276 -0.0662435716041881 0.0 0.0 0.0 -0.166955625519539 0.9125825146459356 -0.48828048260017715 </DataArray>
</PointData>
<CellData/>
</Piece>
</UnstructuredGrid>
</VTKFile>
