<?xml version="1.0" ?>
<VTKFile type="UnstructuredGrid" version="0.1" byte_order="LittleEndian">
<UnstructuredGrid>
<Piece NumberOfPoints="20" NumberOfCells="0">
<Points>
<DataArray type="Float32" format="ascii" NumberOfComponents="3">1.0170924275454551 1.223383884126914 8.45050739927139 4.580504652960293 5.742447833133889 3.0937153893405016 5.962997894999814 6.362354897955287 9.15959982829335 9.410479220720102 0.4563779294947288 8.669166822205788 0.831016946566401 0.02486764622336038 1.2035836126248365 1.862796747955874 9.922142177923059 6.905416827863822 3.7943823880974032 8.38275893936393 0.5380790700904633 4.034997029905091 1.8196725718193802 1.5846224065214063 4.717727844081869 2.7130755911470272 3.915785062188512 6.368722139925307 9.198038780429652 7.339027843557909 9.00231451530095 7.658764949995838 1.5773958941940949 8.832170601865107 1.5406823777797953 0.47572228124909344 2.5828037096221284 3.1190928195865126 4.226888111169729 1.4243996100549579 6.441072110430193 5.267149498400188 5.7838532170281844 8.979452443302536 5.936822019586137 5.560005141296684 8.392491311656563 5.220614876939538 1.438765783137868 3.618083007087121 0.33831168114380383 8.186245677520983 8.611803769234323 8.00691752743673 4.231803292298688 3.9484050538012143 8.679086124429642 4.1434721640542485 7.096126434656703 2.1383762288445447 </DataArray>
</Points>
<Cells>
<DataArray type="Int32" Name="connectivity" format="ascii">0</DataArray>
<DataArray type="Int32" Name="offsets" format="ascii">0</DataArray>
<DataArray type="UInt8" Name="types" format="ascii">1</DataArray>
</Cells>
<PointData>
<DataArray Name="Points" NumberOfComponents="3" type="Float32" format="ascii">1.0170924275454551 1.223383884126914 8.45050739927139 4.580504652960293 5.742447833133889 3.0937153893405016 5.962997894999814 6.362354897955287 9.15959982829335 9.410479220720102 0.4563779294947288 8.669166822205788 0.831016946566401 0.02486764622336038 1.2035836126248365 1.862796747955874 9.922142177923059 6.905416827863822 3.7943823880974032 8.38275893936393 0.5380790700904633 4.034997029905091 1.8196725718193802 1.5846224065214063 4.717727844081869 2.7130755911470272 3.915785062188512 6.368722139925307 9.198038780429652 7.339027843557909 9.00231451530095 7.658764949995838 1.5773958941940949 8.832170601865107 1.5406823777797953 0.47572228124909344 2.5828037096221284 3.1190928195865126 4.226888111169729 1.4243996100549579 6.441072110430193 5.267149498400188 5.7838532170281844 8.979452443302536 5.936822019586137 5.560005141296684 8.392491311656563 5.220614876939538 1.438765783137868 3.618083007087121 0.33831168114380383 8.186245677520983 8.611803769234323 8.00691752743673 4.231803292298688 3.9484050538012143 8.679086124429642 4.1434721640542485 7.096126434656703 2.1383762288445447 </DataArray>
<DataArray Name="forces" NumberOfComponents="3" type="Float32" format="ascii">-0.30058433548211805 -0.21945596794415312 -0.022795201880961007 -0.12998240774532246 0.4026117243129805 -0.28413742100843153 0.0 0.0 0.0 0.2763612375251413 0.15693675217314848 0.016619800476438764 0.0 0.0 0.0 -0.03767525949251676 0.05796898249251457 0.06883219916503568 0.023074065081310095 -0.08504357387142045 0.1057761164425854 0.0 0.0 0.0 -0.09327037030467018 0.01773804353765002 0.013591441547281471 -0.2521036999630599 -0.20990274256536673 -0.9144751196186115 0.0 0.0 0.0 0.026233476060534163 -0.04918666929560198 -0.08194971999669073 0.09327037030467018 -0.01773804353765002 -0.013591441547281471 0.0 0.0 0.0 13.650825236313025 34.92674344803539 43.36662863791554 -13.247848928710441 -34.76550406690612 -42.396712003434544 0.0 0.0 0.0 -0.11520772625056522 0.10240026401018532 -0.036148592626202375 0.0 0.0 0.0 0.10690834266401236 -0.31756815044156006 0.17836130456584615 </DataArray>
</PointData>
<CellData/>
</Piece>
</UnstructuredGrid>
</VTKFile>
