<?xml version="1.0" ?>
<VTKFile type="UnstructuredGrid" version="0.1" byte_order="LittleEndian">
<UnstructuredGrid>
<Piece NumberOfPoints="20" NumberOfCells="0">
<Points>
<DataArray type="Float32" format="ascii" NumberOfComponents="3">0.8439688973536755 1.077918538443864 8.022638807994749 4.430441561403223 5.061285622168607 2.601032812159829 6.746984984508135 6.0159762479804355 8.750650515294609 9.784865169598413 9.837623465843626 9.677476618328551 1.0450237757433907 9.536560182047957 1.0482331892628076 2.0946798589073445 9.933929558305948 6.518433814579623 3.8144217626228603 7.8501262402006216 1.2632333461993583 4.370712461546816 2.1216212733104705 1.7888644441721375 4.924889720687075 3.0391107084040447 4.301523883718567 6.3017438183254 8.736043160429391 7.767221778344028 8.793177896726087 7.212145269122507 1.9070830236309173 8.824399052213039 1.9874848179525706 9.58432008207094 0.7201406479345017 4.889849582906666 5.060271016816898 1.7788517116022395 5.7602722628351195 5.423356660408472 6.095235457843438 9.215944607646877 5.296359417257713 4.3904853504819235 7.852373840399521 6.00389166583484 1.3800127718442943 4.003633410964703 9.41070206930406 8.400673040138908 8.067831207442532 7.147859592538603 3.74187907351294 3.900676026100124 8.888400802805974 3.571031047499759 6.737988702864227 1.0326542978209883 </DataArray>
</Points>
<Cells>
<DataArray type="Int32" Name="connectivity" format="ascii">0</DataArray>
<DataArray type="Int32" Name="offsets" format="ascii">0</DataArray>
<DataArray type="UInt8" Name="types" format="ascii">1</DataArray>
</Cells>
<PointData>
<DataArray Name="Points" NumberOfComponents="3" type="Float32" format="ascii">0.8439688973536755 1.077918538443864 8.022638807994749 4.430441561403223 5.061285622168607 2.601032812159829 6.746984984508135 6.0159762479804355 8.750650515294609 9.784865169598413 9.837623465843626 9.677476618328551 1.0450237757433907 9.536560182047957 1.0482331892628076 2.0946798589073445 9.933929558305948 6.518433814579623 3.8144217626228603 7.8501262402006216 1.2632333461993583 4.370712461546816 2.1216212733104705 1.7888644441721375 4.924889720687075 3.0391107084040447 4.301523883718567 6.3017438183254 8.736043160429391 7.767221778344028 8.793177896726087 7.212145269122507 1.9070830236309173 8.824399052213039 1.9874848179525706 9.58432008207094 0.7201406479345017 4.889849582906666 5.060271016816898 1.7788517116022395 5.7602722628351195 5.423356660408472 6.095235457843438 9.215944607646877 5.296359417257713 4.3904853504819235 7.852373840399521 6.00389166583484 1.3800127718442943 4.003633410964703 9.41070206930406 8.400673040138908 8.067831207442532 7.147859592538603 3.74187907351294 3.900676026100124 8.888400802805974 3.571031047499759 6.737988702864227 1.0326542978209883 </DataArray>
<DataArray Name="forces" NumberOfComponents="3" type="Float32" format="ascii">0.012968651584345348 -0.07348706237898064 -0.004966322273450542 -0.01566648367825367 0.030565185114719482 -0.02859050011456249 0.0 0.0 0.0 0.18600136316739826 0.045125013609417626 0.14775940308229774 -0.18041395343807695 0.043102524555053895 -0.1962480047809312 -0.0425143732329552 0.03888666204344618 0.051131184162234125 -0.32742596575299493 -1.496124069598758 -0.3101908286004642 0.0 0.0 0.0 0.0 0.0 0.0 0.06610611633274875 -0.021045443857757355 -0.01950691251588895 0.0 0.0 0.0 0.02395831191928854 -0.053627137828937056 0.0023237398098499 1.172711452333561 0.9641484633085097 0.4021821505696195 -1.172711452333561 -0.9641484633085097 -0.4021821505696195 -0.05247189763532776 -0.041970459722256354 0.02177771367235312 0.05247189763532776 0.041970459722256354 -0.02177771367235312 0.047534100110736215 -0.0020720845357905795 -0.010511653717293028 -0.06610611633274875 0.021045443857757355 0.01950691251588895 -0.047534100110736215 0.0020720845357905795 0.010511653717293028 0.3430924494312486 1.4655588844840386 0.3387813287150267 </DataArray>
</PointData>
<CellData/>
</Piece>
</UnstructuredGrid>
</VTKFile>
