<?xml version="1.0" ?>
<VTKFile type="UnstructuredGrid" version="0.1" byte_order="LittleEndian">
<UnstructuredGrid>
<Piece NumberOfPoints="20" NumberOfCells="0">
<Points>
<DataArray type="Float32" format="ascii" NumberOfComponents="3">0.7164482433504255 0.9701371033438569 7.708175476432854 4.319978973349876 4.560967412620932 2.238570320337271 7.323248999018524 5.761373137742511 8.450055293774167 0.06287032675571597 9.383373850002668 0.4204282187202947 1.1998528201525098 9.17816928570792 0.9319562453971642 2.2647590373415825 9.942949206842101 6.234445254519381 3.874506649461893 8.02878029850571 1.6792951337016584 4.617475865778726 2.343585059401615 1.9389942290773061 5.077158080619693 3.2787614669458636 4.5850590765459165 6.2530101871709345 8.396243208134784 8.081115382867878 8.63945354461123 6.88386071736946 2.1494171529605475 8.818970082725684 2.3152967586442097 8.928882888597544 9.355311108063734 6.195071029711257 5.674356633162904 2.0350783723096644 5.25622808800216 5.536669276937524 6.33268259214216 9.404061557787248 4.837890426404657 3.5224650311105696 7.44107130596852 6.5681106740340205 1.3371459204791023 4.28699965911754 8.728835343456012 8.55760973559712 7.6682085916852785 6.516485686705751 3.3814446446850206 3.865623446865292 9.042290390485684 3.105068929341977 5.90419607836441 0.3371752699334146 </DataArray>
</Points>
<Cells>
<DataArray type="Int32" Name="connectivity" format="ascii">0</DataArray>
<DataArray type="Int32" Name="offsets" format="ascii">0</DataArray>
<DataArray type="UInt8" Name="types" format="ascii">1</DataArray>
</Cells>
<PointData>
<DataArray Name="Points" NumberOfComponents="3" type="Float32" format="ascii">0.7164482433504255 0.9701371033438569 7.708175476432854 4.319978973349876 4.560967412620932 2.238570320337271 7.323248999018524 5.761373137742511 8.450055293774167 0.06287032675571597 9.383373850002668 0.4204282187202947 1.1998528201525098 9.17816928570792 0.9319562453971642 2.2647590373415825 9.942949206842101 6.234445254519381 3.874506649461893 8.02878029850571 1.6792951337016584 4.617475865778726 2.343585059401615 1.9389942290773061 5.077158080619693 3.2787614669458636 4.5850590765459165 6.2530101871709345 8.396243208134784 8.081115382867878 8.63945354461123 6.88386071736946 2.1494171529605475 8.818970082725684 2.3152967586442097 8.928882888597544 9.355311108063734 6.195071029711257 5.674356633162904 2.0350783723096644 5.25622808800216 5.536669276937524 6.33268259214216 9.404061557787248 4.837890426404657 3.5224650311105696 7.44107130596852 6.5681106740340205 1.3371459204791023 4.28699965911754 8.728835343456012 8.55760973559712 7.6682085916852785 6.516485686705751 3.3814446446850206 3.865623446865292 9.042290390485684 3.105068929341977 5.90419607836441 0.3371752699334146 </DataArray>
<DataArray Name="forces" NumberOfComponents="3" type="Float32" format="ascii">0.03671954727036483 -0.024360661094350203 -0.03495080364829266 0.010434888971818258 -0.07777606843219868 -0.01050781816706426 0.0 0.0 0.0 2.1358997362424605 -0.38549087369275864 0.9609405453514371 -2.1358997362424605 0.38549087369275864 -0.9609405453514371 -0.03671954727036483 0.024360661094350203 0.03495080364829266 0.0 0.0 0.0 -0.010434888971818258 0.07777606843219868 0.01050781816706426 0.0 0.0 0.0 0.0 0.0 0.0 0.0 0.0 0.0 0.0 0.0 0.0 -0.11955518072956878 0.22078591505581446 0.1262137620280321 0.0 0.0 0.0 0.0 0.0 0.0 0.0 0.0 0.0 0.12174191470413749 -0.02509376261059507 0.018666849980005115 0.11955518072956878 -0.22078591505581446 -0.1262137620280321 -0.12713028187806488 0.06483885322249022 0.006578910740218335 0.005388367173927385 -0.039745090611895156 -0.02524576072022345 </DataArray>
</PointData>
<CellData/>
</Piece>
</UnstructuredGrid>
</VTKFile>
