<?xml version="1.0" ?>
<VTKFile type="UnstructuredGrid" version="0.1" byte_order="LittleEndian">
<UnstructuredGrid>
<Piece NumberOfPoints="20" NumberOfCells="0">
<Points>
<DataArray type="Float32" format="ascii" NumberOfComponents="3">0.5093486654412415 0.7943410595979269 7.195795109706062 4.141371026598949 3.7432542364110017 1.6487739771230532 8.261347942494673 5.3469433618859625 7.9606202393319325 0.5070298493327179 8.64427371586469 1.6387058036943314 1.4603103360799785 8.59437987586789 0.7338354419546891 2.5411340402965803 9.95796265540883 5.772612245119001 3.971892785027189 8.318120103726757 2.355999889275279 5.017956269617046 2.708184391122773 2.1831107105769147 5.325036806091397 3.668890608758127 5.0466279951020665 6.173718600462172 7.843067078296755 8.592088147057524 8.389204599307975 6.349444005213337 2.5439145727994803 8.810134897215654 2.8489380823653443 7.861892739010438 7.286510045992094 6.08389249711538 5.876042969612169 2.4508423820095064 4.435459462444113 5.721002013073102 6.719220592959094 9.71029542855263 4.0915472551391705 2.1094064333144327 6.771498692634275 7.486607155896934 1.2693058584396488 4.748007893747343 7.619532559717683 8.661366724603145 9.253823841490316 6.286933202598792 2.7975942050957485 3.802144293928532 9.29386873573785 2.34214373136362 4.555044760134124 9.20381476235244 </DataArray>
</Points>
<Cells>
<DataArray type="Int32" Name="connectivity" format="ascii">0</DataArray>
<DataArray type="Int32" Name="offsets" format="ascii">0</DataArray>
<DataArray type="UInt8" Name="types" format="ascii">1</DataArray>
</Cells>
<PointData>
<DataArray Name="Points" NumberOfComponents="3" type="Float32" format="ascii">0.5093486654412415 0.7943410595979269 7.195795109706062 4.141371026598949 3.7432542364110017 1.6487739771230532 8.261347942494673 5.3469433618859625 7.9606202393319325 0.5070298493327179 8.64427371586469 1.6387058036943314 1.4603103360799785 8.59437987586789 0.7338354419546891 2.5411340402965803 9.95796265540883 5.772612245119001 3.971892785027189 8.318120103726757 2.355999889275279 5.017956269617046 2.708184391122773 2.1831107105769147 5.325036806091397 3.668890608758127 5.0466279951020665 6.173718600462172 7.843067078296755 8.592088147057524 8.389204599307975 6.349444005213337 2.5439145727994803 8.810134897215654 2.8489380823653443 7.861892739010438 7.286510045992094 6.08389249711538 5.876042969612169 2.4508423820095064 4.435459462444113 5.721002013073102 6.719220592959094 9.71029542855263 4.0915472551391705 2.1094064333144327 6.771498692634275 7.486607155896934 1.2693058584396488 4.748007893747343 7.619532559717683 8.661366724603145 9.253823841490316 6.286933202598792 2.7975942050957485 3.802144293928532 9.29386873573785 2.34214373136362 4.555044760134124 9.20381476235244 </DataArray>
<DataArray Name="forces" NumberOfComponents="3" type="Float32" format="ascii">0.0 0.0 0.0 0.8163427488311972 -0.9639356462648443 0.4976149453387534 -0.01992710912746795 0.015064315710125745 -0.04261180129268295 1.567516086168956 -0.08204237670130714 -1.4879134395839846 -1.567516086168956 0.08204237670130714 1.4879134395839846 0.0 0.0 0.0 0.0 0.0 0.0 -0.8163427488311972 0.9639356462648443 -0.4976149453387534 0.0 0.0 0.0 0.0 0.0 0.0 0.0 0.0 0.0 0.0 0.0 0.0 0.01992710912746795 -0.015064315710125745 0.04261180129268295 -0.04134362428426778 0.010936509076669286 0.06643225329634787 0.0 0.0 0.0 -0.03674983778756474 -0.08851673340993518 0.005814764534576333 0.23772971269923762 0.0368281908797727 0.1530389948542417 0.0 0.0 0.0 92.60812394990734 -153.11789125738105 18.286326407995983 -92.76776020053474 153.15864329083456 -18.511612420681146 </DataArray>
</PointData>
<CellData/>
</Piece>
</UnstructuredGrid>
</VTKFile>
