<?xml version="1.0" ?>
<VTKFile type="UnstructuredGrid" version="0.1" byte_order="LittleEndian">
<UnstructuredGrid>
<Piece NumberOfPoints="20" NumberOfCells="0">
<Points>
<DataArray type="Float32" format="ascii" NumberOfComponents="3">0.07253936712599557 0.4294259025025873 6.128605126896395 3.794270547218055 2.0181215917053565 0.43874855203352014 0.21247782717344574 4.47251704783584 6.937448761360142 1.4173781538782777 7.11162742317804 4.1505220174749295 2.01455309934805 7.377262607712304 0.3425291933103918 3.1155983922727284 9.989073365568716 4.812571661851796 4.174117340116156 8.919740833302615 3.762836014262697 5.820964135485932 3.492589812131025 2.6704833821060965 5.944984813368993 4.312849135124147 5.971085548134299 6.008905373803243 6.69325097984771 9.654181535480287 7.869045514427215 5.238620479571475 3.36390828634005 8.91701578540069 5.211433667093822 5.494648355556017 3.0025655030965615 3.9392427705636064 5.599444884810999 3.314613642001587 2.7348751092887102 6.105366849278011 7.522667437514293 0.34682440278638893 2.5402196634373375 9.170188119334274 5.368697625390152 9.38949813961467 1.1363527576542483 5.708398457003788 5.328177530408738 8.642150866946258 3.3815919694567094 6.700590633852488 2.4045403966437675 2.4182589826336343 0.06560352408812949 9.92957503660629 3.012746421190475 6.591206513798572 </DataArray>
</Points>
<Cells>
<DataArray type="Int32" Name="connectivity" format="ascii">0</DataArray>
<DataArray type="Int32" Name="offsets" format="ascii">0</DataArray>
<DataArray type="UInt8" Name="types" format="ascii">1</DataArray>
</Cells>
<PointData>
<DataArray Name="Points" NumberOfComponents="3" type="Float32" format="ascii">0.07253936712599557 0.4294259025025873 6.128605126896395 3.794270547218055 2.0181215917053565 0.43874855203352014 0.21247782717344574 4.47251704783584 6.937448761360142 1.4173781538782777 7.11162742317804 4.1505220174749295 2.01455309934805 7.377262607712304 0.3425291933103918 3.1155983922727284 9.989073365568716 4.812571661851796 4.174117340116156 8.919740833302615 3.762836014262697 5.820964135485932 3.492589812131025 2.6704833821060965 5.944984813368993 4.312849135124147 5.971085548134299 6.008905373803243 6.69325097984771 9.654181535480287 7.869045514427215 5.238620479571475 3.36390828634005 8.91701578540069 5.211433667093822 5.494648355556017 3.0025655030965615 3.9392427705636064 5.599444884810999 3.314613642001587 2.7348751092887102 6.105366849278011 7.522667437514293 0.34682440278638893 2.5402196634373375 9.170188119334274 5.368697625390152 9.38949813961467 1.1363527576542483 5.708398457003788 5.328177530408738 8.642150866946258 3.3815919694567094 6.700590633852488 2.4045403966437675 2.4182589826336343 0.06560352408812949 9.92957503660629 3.012746421190475 6.591206513798572 </DataArray>
<DataArray Name="forces" NumberOfComponents="3" type="Float32" format="ascii">0.0 0.0 0.0 -1.10432653931748 0.3179626922483826 -0.29651364849800055 -0.4368657134394948 -1.0339013380638498 -0.4262808918913411 -0.04605972887501197 -0.22998756197829678 0.1930163407390165 0.0 0.0 0.0 0.18755059578241629 -0.18946656923300745 -0.1859943523169673 -0.18755059578241629 0.18946656923300745 0.1859943523169673 0.0 0.0 0.0 0.0 0.0 0.0 0.0 0.0 0.0 0.024596321617047633 -0.0006380864056587668 0.05000940339279225 0.12393844776692053 -0.10979598847152483 0.09304242122547773 0.46633206328813753 -1.799835302369066 0.7560616588855733 -0.46633206328813753 1.799835302369066 -0.7560616588855733 0.0 0.0 0.0 0.0 0.0 0.0 -0.061474025899900156 0.16611326222001158 -0.12539469036717038 2.121834252074257 -0.34127673039186496 -0.18456624370847335 1.10432653931748 -0.3179626922483826 0.29651364849800055 -1.725969553243818 1.5494864430911834 0.4001736606096984 </DataArray>
</PointData>
<CellData/>
</Piece>
</UnstructuredGrid>
</VTKFile>
