<?xml version="1.0" ?>
<VTKFile type="UnstructuredGrid" version="0.1" byte_order="LittleEndian">
<UnstructuredGrid>
<Piece NumberOfPoints="20" NumberOfCells="0">
<Points>
<DataArray type="Float32" format="ascii" NumberOfComponents="3">2.444852047034366 2.349901936614964 1.9516626430751345 6.102174848683288 5.81743463047345 9.247746732092635 9.47137589706912 9.236803389510968 2.543785551420638 6.333892410117302 5.592382993716362 0.3224507887817885 9.003476366420246 4.072784078384016 2.503522324539711 1.4537100821557494 9.407716327884522 8.600670939064866 3.7871600517756754 5.068204695856708 3.983201768597264 3.604184344332703 8.928310618843353 1.0202761695239742 4.4904604339142855 1.6736872128195597 0.7722215711337433 6.686048567579982 2.554702245584702 5.820326044452273 8.929100559014866 1.6417467905100462 9.796898243387758 7.607600985491243 8.072034830757218 7.994751188903661 6.5252627462502915 6.759629654982156 7.340237134959331 9.906221525728249 2.044717855965235 3.9372396668433147 4.13362738366707 8.620444784497911 2.6447162969151594 2.397034619881696 2.2465810771899144 7.148980817407039 1.7892768537904955 9.949515772344832 7.567234658009605 6.518576627025441 3.400877737970822 3.061055246019973 8.287235133981781 4.345847913697498 6.945557597063992 8.481878009609527 3.4498734846386694 9.732549414933759 </DataArray>
</Points>
<Cells>
<DataArray type="Int32" Name="connectivity" format="ascii">0</DataArray>
<DataArray type="Int32" Name="offsets" format="ascii">0</DataArray>
<DataArray type="UInt8" Name="types" format="ascii">1</DataArray>
</Cells>
<PointData>
<DataArray Name="Points" NumberOfComponents="3" type="Float32" format="ascii">2.444852047034366 2.349901936614964 1.9516626430751345 6.102174848683288 5.81743463047345 9.247746732092635 9.47137589706912 9.236803389510968 2.543785551420638 6.333892410117302 5.592382993716362 0.3224507887817885 9.003476366420246 4.072784078384016 2.503522324539711 1.4537100821557494 9.407716327884522 8.600670939064866 3.7871600517756754 5.068204695856708 3.983201768597264 3.604184344332703 8.928310618843353 1.0202761695239742 4.4904604339142855 1.6736872128195597 0.7722215711337433 6.686048567579982 2.554702245584702 5.820326044452273 8.929100559014866 1.6417467905100462 9.796898243387758 7.607600985491243 8.072034830757218 7.994751188903661 6.5252627462502915 6.759629654982156 7.340237134959331 9.906221525728249 2.044717855965235 3.9372396668433147 4.13362738366707 8.620444784497911 2.6447162969151594 2.397034619881696 2.2465810771899144 7.148980817407039 1.7892768537904955 9.949515772344832 7.567234658009605 6.518576627025441 3.400877737970822 3.061055246019973 8.287235133981781 4.345847913697498 6.945557597063992 8.481878009609527 3.4498734846386694 9.732549414933759 </DataArray>
<DataArray Name="forces" NumberOfComponents="3" type="Float32" format="ascii">0.03672538577272347 -0.01214027413842417 -0.02117483905573407 0.017202855813127985 0.04827007573933916 -0.1060451446443316 0.0 0.0 0.0 0.003114332334459702 -0.0030247409170809283 0.01444424657763867 0.0 0.0 0.0 0.6406828522140641 1.0344338079536002 -1.9730943588439085 0.0 0.0 0.0 0.14274838920954191 -0.08300676121970653 0.43798141504319227 -0.03672538577272347 0.01214027413842417 0.02117483905573407 0.0 0.0 0.0 -0.07021711719546626 0.28388873538397846 -0.010103223182626698 -0.20159794476678683 -0.24445055763999982 -0.12191076995366154 0.18128075661919915 0.19920522281774158 0.21351166802035448 0.0 0.0 0.0 -0.14274838920954191 0.08300676121970653 -0.43798141504319227 -0.012577084900807098 -0.04753602006197916 0.008655445239605106 -0.628105767313257 -0.986897787891621 1.9644389136043034 0.0 0.0 0.0 0.0 0.0 0.0 0.07021711719546626 -0.28388873538397846 0.010103223182626698 </DataArray>
</PointData>
<CellData/>
</Piece>
</UnstructuredGrid>
</VTKFile>
