<?xml version="1.0" ?>
<VTKFile type="UnstructuredGrid" version="0.1" byte_order="LittleEndian">
<UnstructuredGrid>
<Piece NumberOfPoints="20" NumberOfCells="0">
<Points>
<DataArray type="Float32" format="ascii" NumberOfComponents="3">9.025060200584146 9.57506982501899 3.5928234007893236 2.8154653209627534 7.979538775377543 7.575738333376088 4.819062337275146 2.2461641953958766 4.417687424525443 4.759045659662713 4.1603566443046 9.821938475798296 2.8251827536656706 4.659431086709602 9.87290112955842 4.643722462092404 9.92272642814983 2.5772403767917837 3.72756489661637 9.873318053917735 6.765275109367762 7.811588081516505 5.323536732565159 3.9592154717103463 7.74636220260588 5.4427651819301195 8.099389337397847 5.626209398464601 3.9369307435628285 2.1831499262683423 6.536767578522531 2.6372363379294708 5.158608729295528 9.760605365542 6.9358440521920395 9.026950097498284 2.989141985638024 9.414171788212888 4.274365084166498 5.700064287093537 9.227300729564686 8.094460231507002 9.434827731794828 1.8593107012641314 8.874297842200765 2.193319462242494 2.0611436167569877 3.8904034080794583 0.17063628591465846 7.176193449026902 9.81205575090707 8.058606648461161 6.936483631776722 8.435581486936202 1.6908243132529552 9.0122339032475 1.919052974924979 4.048534901088971 9.56865027445806 0.4274761120727422 </DataArray>
</Points>
<Cells>
<DataArray type="Int32" Name="connectivity" format="ascii">0</DataArray>
<DataArray type="Int32" Name="offsets" format="ascii">0</DataArray>
<DataArray type="UInt8" Name="types" format="ascii">1</DataArray>
</Cells>
<PointData>
<DataArray Name="Points" NumberOfComponents="3" type="Float32" format="ascii">9.025060200584146 9.57506982501899 3.5928234007893236 2.8154653209627534 7.979538775377543 7.575738333376088 4.819062337275146 2.2461641953958766 4.417687424525443 4.759045659662713 4.1603566443046 9.821938475798296 2.8251827536656706 4.659431086709602 9.87290112955842 4.643722462092404 9.92272642814983 2.5772403767917837 3.72756489661637 9.873318053917735 6.765275109367762 7.811588081516505 5.323536732565159 3.9592154717103463 7.74636220260588 5.4427651819301195 8.099389337397847 5.626209398464601 3.9369307435628285 2.1831499262683423 6.536767578522531 2.6372363379294708 5.158608729295528 9.760605365542 6.9358440521920395 9.026950097498284 2.989141985638024 9.414171788212888 4.274365084166498 5.700064287093537 9.227300729564686 8.094460231507002 9.434827731794828 1.8593107012641314 8.874297842200765 2.193319462242494 2.0611436167569877 3.8904034080794583 0.17063628591465846 7.176193449026902 9.81205575090707 8.058606648461161 6.936483631776722 8.435581486936202 1.6908243132529552 9.0122339032475 1.919052974924979 4.048534901088971 9.56865027445806 0.4274761120727422 </DataArray>
<DataArray Name="forces" NumberOfComponents="3" type="Float32" format="ascii">0.0 0.0 0.0 0.03249025760787619 0.06745905628575301 -0.0288698291640697 0.22214536606278013 0.05057611875073112 0.09582100032036783 -0.1770986116731475 0.045704062370391825 0.004667039840367563 0.1770986116731475 -0.045704062370391825 -0.004667039840367563 -0.053748892503914916 -0.022494939850409873 -0.04123204056940915 0.0019606827415965256 -0.07874215447754965 0.052084881892247276 0.0 0.0 0.0 0.18186167540418408 0.8699919037059439 0.1958096241081471 0.0 0.0 0.0 -0.22214536606278013 -0.05057611875073112 -0.09582100032036783 -46.2347766111604 -26.898545051007954 -87.98530271175541 0.03297036742826808 0.010133827622577914 -0.0338181345483071 -0.034450940349472714 0.011283098191796636 -0.02321505272817758 0.0 0.0 0.0 0.0 0.0 0.0 45.888563376606896 26.89867515152715 87.86500906087225 0.1643515591493162 -0.8701220042251423 -0.07551597322498768 0.0 0.0 0.0 0.020778525075646835 0.012361112227831959 0.07505017511771625 </DataArray>
</PointData>
<CellData/>
</Piece>
</UnstructuredGrid>
</VTKFile>
