<?xml version="1.0" ?>
<VTKFile type="UnstructuredGrid" version="0.1" byte_order="LittleEndian">
<UnstructuredGrid>
<Piece NumberOfPoints="20" NumberOfCells="0">
<Points>
<DataArray type="Float32" format="ascii" NumberOfComponents="3">9.01897388421808 9.570138528118374 3.578112139193048 2.8096994468356202 7.956191557004804 7.559173564850375 4.845737261788878 2.2332042524373983 4.402945888921624 4.790602527689635 4.139972617975306 9.844388309796496 2.8182127202750142 4.647598677675831 9.8807319023759 4.6529506213449165 9.922146484272611 2.5643627545139 3.711321581871183 9.870038249421622 6.790345619841771 7.823476953757521 5.333812687381925 3.9674154481837953 7.757641325823373 5.450240595324245 8.112144984816805 5.6240043887235505 3.9208178121724755 2.197864128380713 6.528647289537394 2.622478370460874 5.168233376517555 9.753431470630217 6.991832518731085 8.968857477004809 2.94085308037489 9.392555205524701 4.246988201270982 5.717464753443437 9.21139011850657 8.1177118784152 9.445961211962386 1.8681110447146012 8.853130725585235 2.1529285318891205 2.042114675454964 3.9165705653518943 0.17649121285089564 7.196005495482271 9.800452321923553 8.054456074499498 6.956141741660905 8.445233759229465 1.6867983979095893 8.992444499180502 1.929747658976565 4.014377327505977 9.548685556483662 0.3920604880461064 </DataArray>
</Points>
<Cells>
<DataArray type="Int32" Name="connectivity" format="ascii">0</DataArray>
<DataArray type="Int32" Name="offsets" format="ascii">0</DataArray>
<DataArray type="UInt8" Name="types" format="ascii">1</DataArray>
</Cells>
<PointData>
<DataArray Name="Points" NumberOfComponents="3" type="Float32" format="ascii">9.01897388421808 9.570138528118374 3.578112139193048 2.8096994468356202 7.956191557004804 7.559173564850375 4.845737261788878 2.2332042524373983 4.402945888921624 4.790602527689635 4.139972617975306 9.844388309796496 2.8182127202750142 4.647598677675831 9.8807319023759 4.6529506213449165 9.922146484272611 2.5643627545139 3.711321581871183 9.870038249421622 6.790345619841771 7.823476953757521 5.333812687381925 3.9674154481837953 7.757641325823373 5.450240595324245 8.112144984816805 5.6240043887235505 3.9208178121724755 2.197864128380713 6.528647289537394 2.622478370460874 5.168233376517555 9.753431470630217 6.991832518731085 8.968857477004809 2.94085308037489 9.392555205524701 4.246988201270982 5.717464753443437 9.21139011850657 8.1177118784152 9.445961211962386 1.8681110447146012 8.853130725585235 2.1529285318891205 2.042114675454964 3.9165705653518943 0.17649121285089564 7.196005495482271 9.800452321923553 8.054456074499498 6.956141741660905 8.445233759229465 1.6867983979095893 8.992444499180502 1.929747658976565 4.014377327505977 9.548685556483662 0.3920604880461064 </DataArray>
<DataArray Name="forces" NumberOfComponents="3" type="Float32" format="ascii">0.0 0.0 0.0 0.032326739447829024 0.06861901562166903 -0.027565539589955435 0.23788419223093504 0.055025020705540724 0.10817559632391952 -0.1552249466065032 0.039949622390499276 0.0028602014654603323 0.1552249466065032 -0.039949622390499276 -0.0028602014654603323 -0.05018844287340446 -0.02093951806587181 -0.03685241519928441 -0.00043370965948414525 -0.0790899953388586 0.048667588648372576 0.0 0.0 0.0 0.1667515636071371 0.8460205293350268 0.1871304380966019 0.0 0.0 0.0 -0.23788419223093504 -0.055025020705540724 -0.10817559632391952 -24.352157864946143 -11.576220570080485 -47.23492151351059 0.030533952921429502 0.009444856257270581 -0.030008340615086185 -0.03189302978834488 0.010470979717189579 -0.02110204905841714 0.0 0.0 0.0 0.0 0.0 0.0 23.970052640302107 11.568193595457322 47.117156795572264 0.21535366103689807 -0.8379935547118627 -0.0693657201582742 0.0 0.0 0.0 0.01965448995197496 0.011494661808601227 0.06686075581437059 </DataArray>
</PointData>
<CellData/>
</Piece>
</UnstructuredGrid>
</VTKFile>
