<?xml version="1.0" ?>
<VTKFile type="UnstructuredGrid" version="0.1" byte_order="LittleEndian">
<UnstructuredGrid>
<Piece NumberOfPoints="20" NumberOfCells="0">
<Points>
<DataArray type="Float32" format="ascii" NumberOfComponents="3">8.859208079608859 9.440691984477224 3.1919415222908176 2.6584935948394683 7.343697978444459 7.124265196066176 5.5479697195172655 1.8936302775659686 4.017483262892782 5.61867010614707 3.6049609926905397 0.43401058820909966 2.63561436154977 4.336904808181935 0.08629207689020646 4.895131668460736 9.90689509963472 2.2262281314631327 3.2847939616234942 9.783563902149133 7.448554169552206 8.135559850084196 5.603556501322036 4.182664830611833 8.054168924674618 5.65021311649076 8.44771509916216 5.566048870739127 3.4978182541284317 2.583856089434837 6.313483216186318 2.2345163721668913 5.419317002904596 9.547199488848454 8.453107776999753 7.413609273124773 1.6730271067895803 8.82492708256709 3.5274306330998892 6.174236306735602 8.793725211635604 8.728062234161207 9.73821506636079 2.0991200602894224 8.297493914427577 1.0926666101130693 1.5426049662768477 4.60345844375334 0.345712327946903 7.724070807389393 9.526141521620097 7.947423002904435 7.46886126998279 8.69790894386481 1.5813804213920348 8.473171693920833 2.2113779715951427 3.1177798641721455 9.024639118025915 9.462498151189028 </DataArray>
</Points>
<Cells>
<DataArray type="Int32" Name="connectivity" format="ascii">0</DataArray>
<DataArray type="Int32" Name="offsets" format="ascii">0</DataArray>
<DataArray type="UInt8" Name="types" format="ascii">1</DataArray>
</Cells>
<PointData>
<DataArray Name="Points" NumberOfComponents="3" type="Float32" format="ascii">8.859208079608859 9.440691984477224 3.1919415222908176 2.6584935948394683 7.343697978444459 7.124265196066176 5.5479697195172655 1.8936302775659686 4.017483262892782 5.61867010614707 3.6049609926905397 0.43401058820909966 2.63561436154977 4.336904808181935 0.08629207689020646 4.895131668460736 9.90689509963472 2.2262281314631327 3.2847939616234942 9.783563902149133 7.448554169552206 8.135559850084196 5.603556501322036 4.182664830611833 8.054168924674618 5.65021311649076 8.44771509916216 5.566048870739127 3.4978182541284317 2.583856089434837 6.313483216186318 2.2345163721668913 5.419317002904596 9.547199488848454 8.453107776999753 7.413609273124773 1.6730271067895803 8.82492708256709 3.5274306330998892 6.174236306735602 8.793725211635604 8.728062234161207 9.73821506636079 2.0991200602894224 8.297493914427577 1.0926666101130693 1.5426049662768477 4.60345844375334 0.345712327946903 7.724070807389393 9.526141521620097 7.947423002904435 7.46886126998279 8.69790894386481 1.5813804213920348 8.473171693920833 2.2113779715951427 3.1177798641721455 9.024639118025915 9.462498151189028 </DataArray>
<DataArray Name="forces" NumberOfComponents="3" type="Float32" format="ascii">0.0 0.0 0.0 0.0 0.0 0.0 0.3256225039702637 0.22674839649264647 0.5211707723254867 -0.0026789306631537528 -0.005454603363891664 0.1094479631583775 0.0 0.0 0.0 0.0 0.0 0.0 -0.00833323238884915 -0.03786684290886415 0.10048650666745407 0.0 0.0 0.0 -0.018581151232766487 0.3165701866529373 0.04355098151605229 0.0017529924645229913 -0.07670516769257288 -0.03602360013327237 -0.324696565771633 -0.14458862543618192 -0.5945951353505918 -0.033826964901914024 -0.04959696421819082 0.09210878074653168 -0.12591097570335746 -0.4832674962683389 -1.8080902104453087 0.0725449854560639 -0.05420311103513692 -0.0012336377273362512 0.0 0.0 0.0 0.0 0.0 0.0 -0.018835644605516053 0.01719681962705442 -0.049831267203261406 -0.0013012247158673412 -0.229966931026664 -0.08459485733198631 0.12591097570335746 0.4832674962683389 1.8080902104453087 0.00833323238884915 0.03786684290886415 -0.10048650666745407 </DataArray>
</PointData>
<CellData/>
</Piece>
</UnstructuredGrid>
</VTKFile>
