<?xml version="1.0" ?>
<VTKFile type="UnstructuredGrid" version="0.1" byte_order="LittleEndian">
<UnstructuredGrid>
<Piece NumberOfPoints="20" NumberOfCells="0">
<Points>
<DataArray type="Float32" format="ascii" NumberOfComponents="3">8.722633470348597 8.258032453931628 0.5352540194084404 2.088689238770813 3.8861662861355333 3.64361954048874 6.069052998499077 5.591782385482867 9.717751055027206 1.0760984646905047 0.024745974843900287 4.39177211575321 1.422246572743678 2.271448815259102 1.4527918563264253 6.551095625594503 9.8116337772474 9.968504494445776 0.3374660708065947 9.122361790278966 1.8076452543481416 9.567604226363413 5.927850147603104 1.955409336819367 0.39943951661032534 6.741974344474035 0.60143457189262 5.201296743354705 0.6562640672452398 5.14764975590532 4.861924125398967 9.645624430473069 7.039945054874914 5.684133651328303 5.36666078902481 7.634455964860986 2.5146926222196915 4.045863302341398 1.5177233883481338 9.259581991972043 7.479980605403293 0.49060002582333045 1.3885995747915505 3.13315892922727 5.172098641531658 9.659071543205298 5.301813868238888 0.4464747597959952 1.570040069860903 1.2395939684321893 7.709178600012363 7.227339890572982 0.8466288526484315 0.3691458609144375 1.1558578191789892 4.864577400765529 3.736977535259567 7.810882475810368 7.090801725974416 6.938532733571507 </DataArray>
</Points>
<Cells>
<DataArray type="Int32" Name="connectivity" format="ascii">0</DataArray>
<DataArray type="Int32" Name="offsets" format="ascii">0</DataArray>
<DataArray type="UInt8" Name="types" format="ascii">1</DataArray>
</Cells>
<PointData>
<DataArray Name="Points" NumberOfComponents="3" type="Float32" format="ascii">8.722633470348597 8.258032453931628 0.5352540194084404 2.088689238770813 3.8861662861355333 3.64361954048874 6.069052998499077 5.591782385482867 9.717751055027206 1.0760984646905047 0.024745974843900287 4.39177211575321 1.422246572743678 2.271448815259102 1.4527918563264253 6.551095625594503 9.8116337772474 9.968504494445776 0.3374660708065947 9.122361790278966 1.8076452543481416 9.567604226363413 5.927850147603104 1.955409336819367 0.39943951661032534 6.741974344474035 0.60143457189262 5.201296743354705 0.6562640672452398 5.14764975590532 4.861924125398967 9.645624430473069 7.039945054874914 5.684133651328303 5.36666078902481 7.634455964860986 2.5146926222196915 4.045863302341398 1.5177233883481338 9.259581991972043 7.479980605403293 0.49060002582333045 1.3885995747915505 3.13315892922727 5.172098641531658 9.659071543205298 5.301813868238888 0.4464747597959952 1.570040069860903 1.2395939684321893 7.709178600012363 7.227339890572982 0.8466288526484315 0.3691458609144375 1.1558578191789892 4.864577400765529 3.736977535259567 7.810882475810368 7.090801725974416 6.938532733571507 </DataArray>
<DataArray Name="forces" NumberOfComponents="3" type="Float32" format="ascii">-35.59114221707455 51.72764569454036 3.021224108502921 -1.4333561712088776 1.2765881771546699 0.29561722648294975 -0.021299327754515443 -0.01245699573903877 -0.11527813621469284 0.0 0.0 0.0 0.07169038783462289 0.11644370247786441 0.004261049518706442 1.1664590546375193 1.7852711508691261 0.6910694460301144 -0.08841909814686381 -0.07314290491030115 -0.08100277205080844 0.20412329354478753 -0.0064017621419729664 -1.0003935433860975 -2.1462987669789713 0.2715025943157451 0.07123249015182885 -0.01613401811235566 -0.048046534522927835 0.08996107821369 0.01613401811235566 0.048046534522927835 -0.08996107821369 0.021299327754515443 0.01245699573903877 0.11527813621469284 -0.09179014763703586 -0.1239785526495066 0.09604332289487057 37.35302626198776 -52.899123169894644 -2.7120150916542145 0.11216949794744452 0.18927536304652037 -0.3121896273540415 0.2687105266678384 0.9795195480908164 0.7009548084363707 0.0 0.0 0.0 -1.1664590546375193 -1.7852711508691261 -0.6910694460301144 1.341286433063846 -1.4583286900295482 -0.0837319715424853 0.0 0.0 0.0 </DataArray>
</PointData>
<CellData/>
</Piece>
</UnstructuredGrid>
</VTKFile>
