<?xml version="1.0" ?>
<VTKFile type="UnstructuredGrid" version="0.1" byte_order="LittleEndian">
<UnstructuredGrid>
<Piece NumberOfPoints="20" NumberOfCells="0">
<Points>
<DataArray type="Float32" format="ascii" NumberOfComponents="3">8.2876830240134 8.81725790322338 8.094079857853107 3.501970452279245 3.551821511720323 7.491551956537967 5.2294699745833855 1.5982254901406932 9.082528549238319 6.284842034203185 6.610515936451365 8.28624226019851 0.20039791027231846 0.4397006958480594 2.7473908764270716 8.414152854732162 9.829952160608313 7.837170824340121 7.439198421448269 8.4559483839873 5.943364704302593 8.9161558214733 7.682398848852332 7.759341265644418 4.359378292494372 6.404430029783677 2.212068282234626 3.998512533093996 8.838490884141153 3.06411168661915 3.3635496039031683 7.166490721577559 8.543068297884805 2.1256401900417257 7.561938913623308 9.027773322512203 3.367153731840559 8.286909551579942 1.8055809300238816 2.051773240180923 6.630602687426637 0.3126319984453983 1.2004233881963509 0.4817845902692103 5.558011642558571 0.6951816965225354 7.036465876938806 2.9845689451466617 2.8051563432592355 4.61363530088758 5.9943069533561335 6.338295708435898 3.8688005487011985 1.9791308109948829 0.6496431803589378 2.120835955043758 4.5683238640078985 3.5300651046590983 7.494442808534762 9.927349615991528 </DataArray>
</Points>
<Cells>
<DataArray type="Int32" Name="connectivity" format="ascii">0</DataArray>
<DataArray type="Int32" Name="offsets" format="ascii">0</DataArray>
<DataArray type="UInt8" Name="types" format="ascii">1</DataArray>
</Cells>
<PointData>
<DataArray Name="Points" NumberOfComponents="3" type="Float32" format="ascii">8.2876830240134 8.81725790322338 8.094079857853107 3.501970452279245 3.551821511720323 7.491551956537967 5.2294699745833855 1.5982254901406932 9.082528549238319 6.284842034203185 6.610515936451365 8.28624226019851 0.20039791027231846 0.4397006958480594 2.7473908764270716 8.414152854732162 9.829952160608313 7.837170824340121 7.439198421448269 8.4559483839873 5.943364704302593 8.9161558214733 7.682398848852332 7.759341265644418 4.359378292494372 6.404430029783677 2.212068282234626 3.998512533093996 8.838490884141153 3.06411168661915 3.3635496039031683 7.166490721577559 8.543068297884805 2.1256401900417257 7.561938913623308 9.027773322512203 3.367153731840559 8.286909551579942 1.8055809300238816 2.051773240180923 6.630602687426637 0.3126319984453983 1.2004233881963509 0.4817845902692103 5.558011642558571 0.6951816965225354 7.036465876938806 2.9845689451466617 2.8051563432592355 4.61363530088758 5.9943069533561335 6.338295708435898 3.8688005487011985 1.9791308109948829 0.6496431803589378 2.120835955043758 4.5683238640078985 3.5300651046590983 7.494442808534762 9.927349615991528 </DataArray>
<DataArray Name="forces" NumberOfComponents="3" type="Float32" format="ascii">-0.024170552484235164 -9.352004237345326 1.3716325184173306 -0.073099052788152 0.11138922306651537 -0.1570679900243564 0.0 0.0 0.0 0.0 0.0 0.0 0.0 0.0 0.0 0.9734164562932216 7.535958022592917 -1.9378922659651188 0.048119960949453686 -0.003960681055886865 0.08836335124371995 -0.99736586475844 1.8200068958082953 0.4778963963040683 -0.04812396857884667 0.09130230085974801 -0.019715077958358994 -0.46144740795028466 -0.40313966587434064 -0.9198347347081285 -1.4309856365846905 0.8215559635329608 2.11188582789869 2.0292098223899604 -1.0051484060301878 0.3799477299582355 0.5220011948965636 0.25137370610691145 0.796244445573116 0.4499857383915595 0.7152247377278677 -0.8212850407924944 -0.051547193619859745 0.15339784700083023 -0.09262429335372904 0.0 0.0 0.0 0.073099052788152 -0.11138922306651537 0.1570679900243564 0.0 0.0 0.0 0.051547193619859745 -0.15339784700083023 0.09262429335372904 -1.0606397425642617 -0.47116863632295947 -1.5272431499710595 </DataArray>
</PointData>
<CellData/>
</Piece>
</UnstructuredGrid>
</VTKFile>
