<?xml version="1.0" ?>
<VTKFile type="UnstructuredGrid" version="0.1" byte_order="LittleEndian">
<UnstructuredGrid>
<Piece NumberOfPoints="20" NumberOfCells="0">
<Points>
<DataArray type="Float32" format="ascii" NumberOfComponents="3">2.2117364831136346 2.177269054084486 1.401973157527925 5.850179199661202 5.927857696218639 8.210986222602502 0.5158417453834936 8.7722376978397 1.9999159789574579 6.829507453398537 4.766165433679888 1.6669919134302555 9.299216978113742 3.421597284237139 2.293753784080497 1.0390212001379484 9.617610495143078 8.806247710513846 3.7880205398160385 3.992229183775362 5.038588400668509 2.9247504838865694 9.526427481045047 0.7508569396232041 4.504767160372855 1.814362824394337 1.277381774380266 6.712520383168227 2.2125105798800866 4.710044626212766 9.458499252460935 0.8876637432370749 9.714152921642643 8.077105481225455 8.606178870207092 6.768877816863548 4.3123451763943805 9.433466548952678 8.429345371969385 9.870393326960325 1.1485059765698598 4.157848684718978 4.401339024017714 8.673051480823919 1.569084844435638 1.8971809305933731 1.0849159568112339 8.334806028491585 1.8419619374584748 0.933379740268327 6.78005942944606 6.714557800805211 2.449005415382055 3.5939253356185032 7.635124186275362 4.281355863384512 7.224358583181844 7.785170157690021 2.290473634602764 8.562444383680434 </DataArray>
</Points>
<Cells>
<DataArray type="Int32" Name="connectivity" format="ascii">0</DataArray>
<DataArray type="Int32" Name="offsets" format="ascii">0</DataArray>
<DataArray type="UInt8" Name="types" format="ascii">1</DataArray>
</Cells>
<PointData>
<DataArray Name="Points" NumberOfComponents="3" type="Float32" format="ascii">2.2117364831136346 2.177269054084486 1.401973157527925 5.850179199661202 5.927857696218639 8.210986222602502 0.5158417453834936 8.7722376978397 1.9999159789574579 6.829507453398537 4.766165433679888 1.6669919134302555 9.299216978113742 3.421597284237139 2.293753784080497 1.0390212001379484 9.617610495143078 8.806247710513846 3.7880205398160385 3.992229183775362 5.038588400668509 2.9247504838865694 9.526427481045047 0.7508569396232041 4.504767160372855 1.814362824394337 1.277381774380266 6.712520383168227 2.2125105798800866 4.710044626212766 9.458499252460935 0.8876637432370749 9.714152921642643 8.077105481225455 8.606178870207092 6.768877816863548 4.3123451763943805 9.433466548952678 8.429345371969385 9.870393326960325 1.1485059765698598 4.157848684718978 4.401339024017714 8.673051480823919 1.569084844435638 1.8971809305933731 1.0849159568112339 8.334806028491585 1.8419619374584748 0.933379740268327 6.78005942944606 6.714557800805211 2.449005415382055 3.5939253356185032 7.635124186275362 4.281355863384512 7.224358583181844 7.785170157690021 2.290473634602764 8.562444383680434 </DataArray>
<DataArray Name="forces" NumberOfComponents="3" type="Float32" format="ascii">0.06365526974401992 -0.010074393758361482 -0.003458696903054215 0.0 0.0 0.0 0.0 0.0 0.0 0.0 0.0 0.0 0.0 0.0 0.0 0.14223136600582342 0.40120859284181065 -0.07656055991445426 0.0 0.0 0.0 0.2067720595365136 -0.11950134267538275 0.11457942713905045 -0.06365526974401992 0.010074393758361482 0.003458696903054215 0.0015864781446197121 0.18415168349815608 -0.8690897875695487 0.03401442995195064 -0.02632954480680196 -0.05597537323730704 0.0 0.0 0.0 0.0 0.0 0.0 0.0 0.0 0.0 -0.2067720595365136 0.11950134267538275 -0.11457942713905045 -0.23719189534354096 -0.43875318991332685 -0.7908618033819691 0.03209037989428307 0.08806489362680732 0.9035371014612648 -0.0015864781446197121 -0.18415168349815608 0.8690897875695487 0.0032004935548859584 -0.042465690225992 0.028541485919306442 0.025655225936597883 0.018274938477502865 -0.008680850846840761 </DataArray>
</PointData>
<CellData/>
</Piece>
</UnstructuredGrid>
</VTKFile>
