<?xml version="1.0" ?>
<VTKFile type="UnstructuredGrid" version="0.1" byte_order="LittleEndian">
<UnstructuredGrid>
<Piece NumberOfPoints="20" NumberOfCells="0">
<Points>
<DataArray type="Float32" format="ascii" NumberOfComponents="3">8.252322532061173 8.846097031914194 7.918715022180039 3.6024136587389717 3.528333462084828 7.0500935481492215 5.24081989000796 1.9556201801232134 9.370424895836734 6.656199739743078 6.369704815230876 8.57446617500138 0.11115363104861879 0.31077314711232695 2.8397571096300536 8.555094097450734 9.837428204683912 7.683636963832937 7.232204710320329 8.407207014162879 6.240533877019277 8.86494655052426 7.830144744584242 8.24237914167378 4.640700530436466 6.380965010113967 2.3266334959712274 3.8487553118844513 8.773998917263983 2.5786081761288684 3.2555315676829184 6.988981753684734 8.659239364938452 1.8769053420830986 6.998285757684951 8.412100008816243 2.714207834764379 7.8733768570120555 1.8290110481851138 2.2550510160315995 6.571824659362594 0.297765418666601 1.2052010732627003 0.21708293451608252 5.63902418108696 0.7711075245912803 7.145823314104382 2.3839171539107524 2.8937256678583734 4.8548404325218835 5.871741884455256 6.275204204096984 4.084167946398633 2.0945466813453915 0.595664602475375 1.9989340176859307 4.574708019083218 3.2086923001324363 7.527233038565906 0.12562035868651938 </DataArray>
</Points>
<Cells>
<DataArray type="Int32" Name="connectivity" format="ascii">0</DataArray>
<DataArray type="Int32" Name="offsets" format="ascii">0</DataArray>
<DataArray type="UInt8" Name="types" format="ascii">1</DataArray>
</Cells>
<PointData>
<DataArray Name="Points" NumberOfComponents="3" type="Float32" format="ascii">8.252322532061173 8.846097031914194 7.918715022180039 3.6024136587389717 3.528333462084828 7.0500935481492215 5.24081989000796 1.9556201801232134 9.370424895836734 6.656199739743078 6.369704815230876 8.57446617500138 0.11115363104861879 0.31077314711232695 2.8397571096300536 8.555094097450734 9.837428204683912 7.683636963832937 7.232204710320329 8.407207014162879 6.240533877019277 8.86494655052426 7.830144744584242 8.24237914167378 4.640700530436466 6.380965010113967 2.3266334959712274 3.8487553118844513 8.773998917263983 2.5786081761288684 3.2555315676829184 6.988981753684734 8.659239364938452 1.8769053420830986 6.998285757684951 8.412100008816243 2.714207834764379 7.8733768570120555 1.8290110481851138 2.2550510160315995 6.571824659362594 0.297765418666601 1.2052010732627003 0.21708293451608252 5.63902418108696 0.7711075245912803 7.145823314104382 2.3839171539107524 2.8937256678583734 4.8548404325218835 5.871741884455256 6.275204204096984 4.084167946398633 2.0945466813453915 0.595664602475375 1.9989340176859307 4.574708019083218 3.2086923001324363 7.527233038565906 0.12562035868651938 </DataArray>
<DataArray Name="forces" NumberOfComponents="3" type="Float32" format="ascii">-0.6309548526626994 -7.662340077851919 1.8228607552603555 -0.09185092431014946 0.17192458868549915 -0.1527226238703521 0.0 0.0 0.0 0.0 0.0 0.0 0.008353218827390412 0.029104763358018117 0.029911447740318342 1.720576644631005 5.508467480554024 -1.3367142058044164 0.11463008430701466 0.06645735025461584 0.17398272889103955 -1.2042518762753203 2.0874152470432796 -0.6601292783469788 -0.03130196795730912 0.024248951431614475 -0.008085450804164368 -0.4859476659279356 -0.3857530838405931 -0.3210663123902046 -1.7738182698806302 0.28082660907741314 0.7301433978430989 1.7315182594660992 -0.03451910267699856 0.5523916537795587 0.48177500656040073 0.16160639790147846 -0.09051191235911629 1.4318872005990542 1.5160891842981783 -0.4946671603263727 -0.0299176245936975 0.08745785419417317 -0.05223938666492505 0.10089560829465886 0.03777826440265689 -0.028813535148178228 0.09185092431014946 -0.17192458868549915 0.1527226238703521 0.0 0.0 0.0 0.02156440576630709 -0.11656261755219129 0.02232793892460671 -1.455008171154338 -1.6002772205937497 -0.3393906805946214 </DataArray>
</PointData>
<CellData/>
</Piece>
</UnstructuredGrid>
</VTKFile>
