<?xml version="1.0" ?>
<VTKFile type="UnstructuredGrid" version="0.1" byte_order="LittleEndian">
<UnstructuredGrid>
<Piece NumberOfPoints="20" NumberOfCells="0">
<Points>
<DataArray type="Float32" format="ascii" NumberOfComponents="3">8.160203030443974 8.87516738271064 7.474238171527206 3.8630928586078896 3.468968371853366 5.8991650905956385 5.270376961426122 2.8863355186193598 0.12015496510344192 7.623277097919883 5.742592520385854 9.325049286467188 9.878847068056032 9.975358835176298 3.0806257129913934 8.929108495397207 9.88577954536894 7.276625903752252 6.695618791622123 8.281448135812008 7.016873646503068 8.722183845522547 8.230876980084542 9.49280945106315 5.373327251136306 6.319730114022464 2.624909139268556 3.4551679155753545 8.603057674508515 1.3114592811571393 2.9615082534506043 6.528759055461177 8.971902332825524 1.240288649346867 5.529878478913871 6.812380937009967 1.1201298543233307 6.776363798460547 1.9566672749604705 2.7935145355728395 6.4302192598154 0.2534630855055413 1.2173819480932215 9.528516356436329 5.849540841486072 0.8684136980985726 7.451845202139534 0.7497664032514364 3.1252194441650736 5.481192798300011 5.553903429289904 6.110755369529002 4.645286787929001 2.395141271932707 0.45525598844728715 1.680385892476039 4.591455377215218 2.3621741638864786 7.601389799797199 0.639931235921081 </DataArray>
</Points>
<Cells>
<DataArray type="Int32" Name="connectivity" format="ascii">0</DataArray>
<DataArray type="Int32" Name="offsets" format="ascii">0</DataArray>
<DataArray type="UInt8" Name="types" format="ascii">1</DataArray>
</Cells>
<PointData>
<DataArray Name="Points" NumberOfComponents="3" type="Float32" format="ascii">8.160203030443974 8.87516738271064 7.474238171527206 3.8630928586078896 3.468968371853366 5.8991650905956385 5.270376961426122 2.8863355186193598 0.12015496510344192 7.623277097919883 5.742592520385854 9.325049286467188 9.878847068056032 9.975358835176298 3.0806257129913934 8.929108495397207 9.88577954536894 7.276625903752252 6.695618791622123 8.281448135812008 7.016873646503068 8.722183845522547 8.230876980084542 9.49280945106315 5.373327251136306 6.319730114022464 2.624909139268556 3.4551679155753545 8.603057674508515 1.3114592811571393 2.9615082534506043 6.528759055461177 8.971902332825524 1.240288649346867 5.529878478913871 6.812380937009967 1.1201298543233307 6.776363798460547 1.9566672749604705 2.7935145355728395 6.4302192598154 0.2534630855055413 1.2173819480932215 9.528516356436329 5.849540841486072 0.8684136980985726 7.451845202139534 0.7497664032514364 3.1252194441650736 5.481192798300011 5.553903429289904 6.110755369529002 4.645286787929001 2.395141271932707 0.45525598844728715 1.680385892476039 4.591455377215218 2.3621741638864786 7.601389799797199 0.639931235921081 </DataArray>
<DataArray Name="forces" NumberOfComponents="3" type="Float32" format="ascii">0.8150817730122475 1.5454282461090467 -0.4491139947345289 -0.035215301161017024 0.09603420829896964 -0.016477749630559105 0.0 0.0 0.0 0.0 0.0 0.0 0.014701986960463384 0.04348871899248688 0.03853548624442301 -1.3790884489297788 -1.8126071713572427 0.35443212238299515 0.5888413033488301 0.23870693531995701 0.18388503432030384 -0.024834627431298866 0.028471989928238968 -0.08920316196877004 0.12564938005211823 -0.28530613439941 -0.039149836257359474 -0.4754550925161567 -0.43572810119494254 -0.29211642644942437 -0.3338592087706738 -0.09765934373251176 2.3467025636985235 0.06390151317624519 -0.0016505055091643867 -0.04266396265722733 -0.1411575922460088 0.8584033696948361 -1.5668686305633144 -0.5440071852937756 2.1967423777302044 -1.5245417924947162 0.0 0.0 0.0 1.4928278343107568 -0.7133734837651771 1.3052673206689784 -0.02868621201522817 -0.09438370278980525 0.05914171228778643 -0.12564938005211823 0.28530613439941 0.039149836257359474 -0.014701986960463384 -0.04348871899248688 -0.03853548624442301 0.0016512445158580746 -1.8083848187324092 -0.26844303486004684 </DataArray>
</PointData>
<CellData/>
</Piece>
</UnstructuredGrid>
</VTKFile>
