<?xml version="1.0" ?>
<VTKFile type="UnstructuredGrid" version="0.1" byte_order="LittleEndian">
<UnstructuredGrid>
<Piece NumberOfPoints="20" NumberOfCells="0">
<Points>
<DataArray type="Float32" format="ascii" NumberOfComponents="3">8.173530614892137 8.870189409088349 7.541805265380173 3.8235331015947356 3.477842089839607 6.074168537172661 5.265884286570562 2.7448667871679455 0.006195994574902386 7.4762813394770085 5.837913589202297 9.210960653524385 9.914145583957296 0.026303995386151257 3.0439782335809435 8.873075237263789 9.879659692583013 7.338232604175054 6.776732240760849 8.300374293350979 6.898579055061924 8.74418903662923 8.16948460156184 9.303287358671298 5.2619171905060735 6.329135217123197 2.579583553756799 3.5151918657336036 8.629235930901478 1.5042334983163732 3.006734399162152 6.5987460965384095 8.923048849952492 1.3368745091420804 5.753053519430853 7.05546664484947 1.3336536497361153 6.949933627989118 1.9167002679767722 2.7115291214352215 6.45088580113627 0.26101110961607343 1.2155412750268353 9.633147394426972 5.8175606762003795 0.881766479040168 7.398474028754573 1.0192671021220863 3.0899936927040033 5.3861301420024725 5.602130525894441 6.135802396112822 4.559899321578048 2.3494385830865117 0.47659935954541605 1.7288741045898215 4.5889268633837315 2.491038439145884 7.590808816661819 0.5616501329196817 </DataArray>
</Points>
<Cells>
<DataArray type="Int32" Name="connectivity" format="ascii">0</DataArray>
<DataArray type="Int32" Name="offsets" format="ascii">0</DataArray>
<DataArray type="UInt8" Name="types" format="ascii">1</DataArray>
</Cells>
<PointData>
<DataArray Name="Points" NumberOfComponents="3" type="Float32" format="ascii">8.173530614892137 8.870189409088349 7.541805265380173 3.8235331015947356 3.477842089839607 6.074168537172661 5.265884286570562 2.7448667871679455 0.006195994574902386 7.4762813394770085 5.837913589202297 9.210960653524385 9.914145583957296 0.026303995386151257 3.0439782335809435 8.873075237263789 9.879659692583013 7.338232604175054 6.776732240760849 8.300374293350979 6.898579055061924 8.74418903662923 8.16948460156184 9.303287358671298 5.2619171905060735 6.329135217123197 2.579583553756799 3.5151918657336036 8.629235930901478 1.5042334983163732 3.006734399162152 6.5987460965384095 8.923048849952492 1.3368745091420804 5.753053519430853 7.05546664484947 1.3336536497361153 6.949933627989118 1.9167002679767722 2.7115291214352215 6.45088580113627 0.26101110961607343 1.2155412750268353 9.633147394426972 5.8175606762003795 0.881766479040168 7.398474028754573 1.0192671021220863 3.0899936927040033 5.3861301420024725 5.602130525894441 6.135802396112822 4.559899321578048 2.3494385830865117 0.47659935954541605 1.7288741045898215 4.5889268633837315 2.491038439145884 7.590808816661819 0.5616501329196817 </DataArray>
<DataArray Name="forces" NumberOfComponents="3" type="Float32" format="ascii">0.8278362468591388 1.6397763085782346 -0.4834021912350088 -0.04576685053437427 0.11906154325360814 -0.029451305338022638 0.0 0.0 0.0 0.0 0.0 0.0 0.013550873445928565 0.04101903673509101 0.03722155361305486 -1.3465873942552449 -1.9431783408192604 0.3918668954446901 0.5748576187422305 0.23450955171667798 0.26472216350201955 -0.05610647134612449 0.06889248052434788 -0.17318686771170075 0.08361922169492493 -0.16929240549105184 -0.02202182071624506 -0.2755166429121187 -0.279356534867508 -0.2535727536099398 -0.43552469743400585 -0.09710756449446908 1.906300056369348 0.05181904707767024 -0.010845594496449389 -0.04295799936134184 0.8572828469576184 -0.5666991364434965 1.0141436448171914 -0.15658066709205443 2.351204097420523 -1.0934073785045624 0.0 0.0 0.0 -0.015330060243546106 0.6587666249706086 -1.4585110017947311 -0.0060521965432959665 -0.10821594875715876 0.07240930469936448 -0.08361922169492493 0.16929240549105184 0.02202182071624506 -0.013550873445928565 -0.04101903673509101 -0.03722155361305486 0.0256692207241066 -2.066807486585658 -0.11495256727730596 </DataArray>
</PointData>
<CellData/>
</Piece>
</UnstructuredGrid>
</VTKFile>
