<?xml version="1.0" ?>
<VTKFile type="UnstructuredGrid" version="0.1" byte_order="LittleEndian">
<UnstructuredGrid>
<Piece NumberOfPoints="20" NumberOfCells="0">
<Points>
<DataArray type="Float32" format="ascii" NumberOfComponents="3">7.970293062300293 9.002190648105374 6.330904326296367 4.52676583276757 3.32159202612831 2.9607414995789663 5.3469810637038755 5.264404375701907 2.0376134211576016 0.09093186751965554 4.142552047886129 1.2433406704621979 9.286203053794546 9.122937619814463 3.6964653840842723 9.824718490652746 9.938361625615332 6.250145354836849 5.347122699369678 7.969061022317394 9.003997558648484 8.354805648861188 9.26171235460942 2.6758562939564245 7.335456523165037 6.312125536320669 3.427533342345383 2.4281631500108434 8.14556355751727 8.073382212789086 2.2168426841037285 5.360708076467182 9.83522178337627 9.61982462610225 1.7809575542099219 2.7313626055728433 7.5352509075974075 3.8695930772936458 2.6118701986305433 4.140422414454515 6.107050281193664 0.09579925302463485 1.475035535737511 7.684715231358682 6.1534346881632755 0.45036877184425 8.431458548427603 6.482609471610534 3.716153425609905 7.075572914295295 4.7449155592461745 5.597475678965279 5.925536022160905 3.116624485955484 0.0954219033985228 0.8648782312554736 4.631198267148273 0.19730352787231356 7.7639660532566435 1.9324205403058348 </DataArray>
</Points>
<Cells>
<DataArray type="Int32" Name="connectivity" format="ascii">0</DataArray>
<DataArray type="Int32" Name="offsets" format="ascii">0</DataArray>
<DataArray type="UInt8" Name="types" format="ascii">1</DataArray>
</Cells>
<PointData>
<DataArray Name="Points" NumberOfComponents="3" type="Float32" format="ascii">7.970293062300293 9.002190648105374 6.330904326296367 4.52676583276757 3.32159202612831 2.9607414995789663 5.3469810637038755 5.264404375701907 2.0376134211576016 0.09093186751965554 4.142552047886129 1.2433406704621979 9.286203053794546 9.122937619814463 3.6964653840842723 9.824718490652746 9.938361625615332 6.250145354836849 5.347122699369678 7.969061022317394 9.003997558648484 8.354805648861188 9.26171235460942 2.6758562939564245 7.335456523165037 6.312125536320669 3.427533342345383 2.4281631500108434 8.14556355751727 8.073382212789086 2.2168426841037285 5.360708076467182 9.83522178337627 9.61982462610225 1.7809575542099219 2.7313626055728433 7.5352509075974075 3.8695930772936458 2.6118701986305433 4.140422414454515 6.107050281193664 0.09579925302463485 1.475035535737511 7.684715231358682 6.1534346881632755 0.45036877184425 8.431458548427603 6.482609471610534 3.716153425609905 7.075572914295295 4.7449155592461745 5.597475678965279 5.925536022160905 3.116624485955484 0.0954219033985228 0.8648782312554736 4.631198267148273 0.19730352787231356 7.7639660532566435 1.9324205403058348 </DataArray>
<DataArray Name="forces" NumberOfComponents="3" type="Float32" format="ascii">0.12440953952377434 0.06280576099035215 -0.005417951187510764 0.024623172906288276 0.05832396498345171 -0.027712655693642004 0.39599865037533943 1.128901183922302 1.9018574222422906 0.0 0.0 0.0 -1.1024839872103922 0.23933976443587862 -1.2639136402470321 0.16287431067316288 -0.5275397180738147 -0.13533669595753903 -0.020527762562346293 -0.03167556588835448 0.018573167030367196 1.1954679291894434 -0.19793870937015756 1.265216760286512 -0.345273204252946 -0.07680119187158861 -0.061766214187353334 -0.0420691209217087 -0.020340910985475736 -0.0847425920383161 0.12866834640162528 0.04992286819033359 0.017430040252639143 0.023432745178763453 -0.045135357923744804 0.0936051719898555 0.0 0.0 0.0 -0.08504800191035597 -0.03437488103322929 0.0011615859877156486 -1.671664341633406 1.2692532944984063 0.6352804461983481 1.4654127321581307 -0.6508222299336928 -0.6428029118187565 0.0 0.0 0.0 -0.09844120095760472 -1.094296378302915 -1.8495433456320172 -0.10625560842426848 -0.18263419579001994 0.08875191606769271 -0.04912419853349942 0.05301230215226842 0.049359496706746 </DataArray>
</PointData>
<CellData/>
</Piece>
</UnstructuredGrid>
</VTKFile>
