<?xml version="1.0" ?>
<VTKFile type="UnstructuredGrid" version="0.1" byte_order="LittleEndian">
<UnstructuredGrid>
<Piece NumberOfPoints="20" NumberOfCells="0">
<Points>
<DataArray type="Float32" format="ascii" NumberOfComponents="3">7.614701823023337 8.78368997506728 3.3735556641834767 6.226407059987 2.945598146026363 5.529985602435655 5.12846590111134 9.780447821996862 3.382834526891444 6.342506691769835 0.08075604883651226 6.106992594711323 7.406378058929876 7.324277757533643 5.086520603262908 2.1518532049558035 9.901788902477431 3.64478235412175 1.9425750289136974 7.1483652248143414 4.046839117993499 7.80456994247964 2.0904754324544745 0.7131634218871199 2.490397030147808 6.769781201035789 5.534860331959729 9.800789716204518 6.9262042119723635 9.848940162327011 0.4143672182841922 2.433927942049168 2.07185929720593 5.513262558110352 2.2880464729465784 2.395439354331574 8.422740159974138 6.564305611035769 4.293264136552331 7.464548899545731 5.294957020671903 9.651459058732362 5.955235202841038 1.4896395090534365 3.185637431319174 5.362333992736766 2.375843806392592 9.456513172455395 5.269556532067899 0.9981678907262214 2.7068723557660133 4.470980704032941 0.375106179299742 8.3495156972401 9.039613503216037 8.797907182551752 4.666416315845898 4.90477200608967 8.313586864801108 5.477804702685062 </DataArray>
</Points>
<Cells>
<DataArray type="Int32" Name="connectivity" format="ascii">0</DataArray>
<DataArray type="Int32" Name="offsets" format="ascii">0</DataArray>
<DataArray type="UInt8" Name="types" format="ascii">1</DataArray>
</Cells>
<PointData>
<DataArray Name="Points" NumberOfComponents="3" type="Float32" format="ascii">7.614701823023337 8.78368997506728 3.3735556641834767 6.226407059987 2.945598146026363 5.529985602435655 5.12846590111134 9.780447821996862 3.382834526891444 6.342506691769835 0.08075604883651226 6.106992594711323 7.406378058929876 7.324277757533643 5.086520603262908 2.1518532049558035 9.901788902477431 3.64478235412175 1.9425750289136974 7.1483652248143414 4.046839117993499 7.80456994247964 2.0904754324544745 0.7131634218871199 2.490397030147808 6.769781201035789 5.534860331959729 9.800789716204518 6.9262042119723635 9.848940162327011 0.4143672182841922 2.433927942049168 2.07185929720593 5.513262558110352 2.2880464729465784 2.395439354331574 8.422740159974138 6.564305611035769 4.293264136552331 7.464548899545731 5.294957020671903 9.651459058732362 5.955235202841038 1.4896395090534365 3.185637431319174 5.362333992736766 2.375843806392592 9.456513172455395 5.269556532067899 0.9981678907262214 2.7068723557660133 4.470980704032941 0.375106179299742 8.3495156972401 9.039613503216037 8.797907182551752 4.666416315845898 4.90477200608967 8.313586864801108 5.477804702685062 </DataArray>
<DataArray Name="forces" NumberOfComponents="3" type="Float32" format="ascii">0.16765044400171264 -0.048951374729939774 0.2181838723574079 0.0 0.0 0.0 0.27649258676864785 1.6780899714998945 -0.8334202748456616 -0.035036595109240495 -0.04306468488745143 -0.01533287166270996 0.8648979642834181 -0.490022475024143 -0.6969980389679412 0.0 0.0 0.0 0.2354705636940059 -0.1627269318936765 0.6395967910232412 0.0 0.0 0.0 -0.2354705636940059 0.1627269318936765 -0.6395967910232412 0.0 0.0 0.0 0.0 0.0 0.0 0.47580627517760365 -3.3878793904955846 1.9425554990468914 -0.7808158520670225 0.6532371052293523 0.6314218963097122 0.0 0.0 0.0 28.473396206146464 22.362249132150797 19.07567600220867 -0.016108057423670715 -0.03615625475929432 -0.020005063227574473 -29.22569506809272 -20.652459713155107 -20.1848112264099 0.016108057423670715 0.03615625475929432 0.020005063227574473 -0.2517325562181083 -0.11426325547526961 -0.15260772969917896 0.035036595109240495 0.04306468488745143 0.01533287166270996 </DataArray>
</PointData>
<CellData/>
</Piece>
</UnstructuredGrid>
</VTKFile>
