<?xml version="1.0" ?>
<VTKFile type="UnstructuredGrid" version="0.1" byte_order="LittleEndian">
<UnstructuredGrid>
<Piece NumberOfPoints="20" NumberOfCells="0">
<Points>
<DataArray type="Float32" format="ascii" NumberOfComponents="3">7.572913077193764 8.654371001751302 2.860325166371816 6.5256113112765055 2.879254453665811 4.224602302832505 5.0847732381903255 0.6133451952923512 3.5407738495941596 7.441405772422734 9.364266253295906 6.958750360434781 7.036336306604237 7.060281890637765 5.294258876609996 2.562985732580514 9.874504732199686 3.1826906862050155 1.3484606549890963 7.000216299433405 4.944685685451702 7.724008662628467 2.6093946634159826 2.114939653167628 3.3951942616248822 6.860860092864479 5.889766454050881 9.336774195582292 6.708505726260814 8.406732679110043 0.09758688464459718 1.9195221566888057 2.4650041499418927 4.787996865918422 0.7472553196850068 0.47264672504267524 6.802938214086451 5.312456464913742 4.615060257249358 8.04865006390594 5.153576167391909 9.573404457813405 6.952881760296357 0.4154380682573829 2.8350093590186813 4.459990726797669 3.0552712966104973 8.225615038474368 5.338288038814129 1.4718016500385278 2.3066479712492365 4.277853418748885 1.1925200089354868 9.333881433203507 8.836754657815977 8.428435802295033 4.651916758122276 4.015707132942623 8.433362008216625 6.13059143379682 </DataArray>
</Points>
<Cells>
<DataArray type="Int32" Name="connectivity" format="ascii">0</DataArray>
<DataArray type="Int32" Name="offsets" format="ascii">0</DataArray>
<DataArray type="UInt8" Name="types" format="ascii">1</DataArray>
</Cells>
<PointData>
<DataArray Name="Points" NumberOfComponents="3" type="Float32" format="ascii">7.572913077193764 8.654371001751302 2.860325166371816 6.5256113112765055 2.879254453665811 4.224602302832505 5.0847732381903255 0.6133451952923512 3.5407738495941596 7.441405772422734 9.364266253295906 6.958750360434781 7.036336306604237 7.060281890637765 5.294258876609996 2.562985732580514 9.874504732199686 3.1826906862050155 1.3484606549890963 7.000216299433405 4.944685685451702 7.724008662628467 2.6093946634159826 2.114939653167628 3.3951942616248822 6.860860092864479 5.889766454050881 9.336774195582292 6.708505726260814 8.406732679110043 0.09758688464459718 1.9195221566888057 2.4650041499418927 4.787996865918422 0.7472553196850068 0.47264672504267524 6.802938214086451 5.312456464913742 4.615060257249358 8.04865006390594 5.153576167391909 9.573404457813405 6.952881760296357 0.4154380682573829 2.8350093590186813 4.459990726797669 3.0552712966104973 8.225615038474368 5.338288038814129 1.4718016500385278 2.3066479712492365 4.277853418748885 1.1925200089354868 9.333881433203507 8.836754657815977 8.428435802295033 4.651916758122276 4.015707132942623 8.433362008216625 6.13059143379682 </DataArray>
<DataArray Name="forces" NumberOfComponents="3" type="Float32" format="ascii">-0.04245933950186348 0.262996766447532 0.07192686084866219 0.027197314654539895 0.035389112717139015 -0.03326222988467184 0.3405185483538085 0.5759980625137217 -0.9156581505202458 0.0 0.0 0.0 0.012845334582559223 -0.21191789059125954 -0.11220933307734718 0.0 0.0 0.0 0.07141941240302419 -0.004862742447575503 0.03297796691661148 5.066571917530446e-06 -0.04806769094470815 0.059153102918657524 0.11798989019193742 0.48486324668139574 0.04053298437800969 -0.034907279576912593 -0.042137523472372894 0.0316160041972761 -0.03744609098578671 0.010883580080017717 -0.005522694333607543 -0.7711513957859509 0.76423122030503 -1.6755812547710427 0.028332204380490777 0.20623993850301703 0.08937740533277896 0.034907279576912593 0.042137523472372894 -0.0316160041972761 -0.20078302231237913 -0.11703155151823535 0.00458183034409787 -0.00855892564496181 -0.08753368509211223 0.05207922401464268 -0.07054819780835131 -0.7440737031787555 0.762370276542525 0.8213424962138305 -0.6218821193942885 1.7622530487536143 -0.09929399271785294 -0.02523203984709809 -0.05950808616806331 -0.1894093025949616 -0.48000050423382024 -0.07351095129462117 </DataArray>
</PointData>
<CellData/>
</Piece>
</UnstructuredGrid>
</VTKFile>
