<?xml version="1.0" ?>
<VTKFile type="UnstructuredGrid" version="0.1" byte_order="LittleEndian">
<UnstructuredGrid>
<Piece NumberOfPoints="20" NumberOfCells="0">
<Points>
<DataArray type="Float32" format="ascii" NumberOfComponents="3">7.535147247215461 8.546389341423204 2.4098776362363434 6.762624257505468 2.81585388755715 3.0762417367009887 5.053403582002296 1.3589456554313109 3.664719021321418 8.408746681835634 8.733520149511019 7.708531464792888 6.712699844085816 6.8220907036485645 5.4733418184781595 2.9248981688698716 9.850486976673501 2.7759198517712704 0.8273027924219017 6.869459225515051 5.736683436614534 7.6791192383535956 3.0709808987818974 3.3483264987583086 4.191244185433553 6.947945270385161 6.201745330772455 8.927884057900737 6.5164019648193285 7.137539300676498 9.818577470948211 1.4667508942813614 2.8110651419631045 4.144718254169139 9.424192067114141 8.742571675918176 5.375791471120038 4.216482406106528 4.901627758686847 8.563243008325628 5.0296143944964165 9.504339966688999 7.846042988828592 9.472330058303612 2.5384114234458584 3.6653863942893175 3.6518741433964625 7.142489413590337 5.37918396660873 1.843720750803674 1.9868272982109074 4.113000451711857 1.9049570873821449 0.20809181287834994 8.65635800023957 8.1027325958932 4.638061734066503 3.2316823506243697 8.532240049787903 6.704031289401496 </DataArray>
</Points>
<Cells>
<DataArray type="Int32" Name="connectivity" format="ascii">0</DataArray>
<DataArray type="Int32" Name="offsets" format="ascii">0</DataArray>
<DataArray type="UInt8" Name="types" format="ascii">1</DataArray>
</Cells>
<PointData>
<DataArray Name="Points" NumberOfComponents="3" type="Float32" format="ascii">7.535147247215461 8.546389341423204 2.4098776362363434 6.762624257505468 2.81585388755715 3.0762417367009887 5.053403582002296 1.3589456554313109 3.664719021321418 8.408746681835634 8.733520149511019 7.708531464792888 6.712699844085816 6.8220907036485645 5.4733418184781595 2.9248981688698716 9.850486976673501 2.7759198517712704 0.8273027924219017 6.869459225515051 5.736683436614534 7.6791192383535956 3.0709808987818974 3.3483264987583086 4.191244185433553 6.947945270385161 6.201745330772455 8.927884057900737 6.5164019648193285 7.137539300676498 9.818577470948211 1.4667508942813614 2.8110651419631045 4.144718254169139 9.424192067114141 8.742571675918176 5.375791471120038 4.216482406106528 4.901627758686847 8.563243008325628 5.0296143944964165 9.504339966688999 7.846042988828592 9.472330058303612 2.5384114234458584 3.6653863942893175 3.6518741433964625 7.142489413590337 5.37918396660873 1.843720750803674 1.9868272982109074 4.113000451711857 1.9049570873821449 0.20809181287834994 8.65635800023957 8.1027325958932 4.638061734066503 3.2316823506243697 8.532240049787903 6.704031289401496 </DataArray>
<DataArray Name="forces" NumberOfComponents="3" type="Float32" format="ascii">-9.98776776772071 -29.746566482040674 -4.129247992568977 -27.239103653645977 -7.661149408526895 -8.114822717911403 0.12172602946630656 0.15064092314169286 -0.3963876836780387 0.01334457414838023 -0.056991654570504466 -0.014677516248107144 0.03305800087612758 0.021781330560516458 -0.014206556680180005 0.0 0.0 0.0 -0.042872403457192364 -0.007968971269441535 0.03161917732931002 27.07094967797313 7.535808298661378 8.03669747867125 -0.12014758853860834 0.19837095471538674 0.06289167044464967 0.029527829308812134 0.064960625839946 -0.016941661081202878 0.0 0.0 0.0 -0.01936500423399451 -0.018917826259606235 -0.043236353644803466 0.0 0.0 0.0 0.0 0.0 0.0 9.98776776772071 29.746566482040674 4.129247992568977 0.0 0.0 0.0 -0.011148395426302457 -0.022515253065349246 0.393629638012756 0.05757634163284314 -0.0027845602108261328 0.08088328490543457 -0.03305800087612758 -0.021781330560516458 0.014206556680180005 0.13951259277260286 -0.17945312845578051 -0.01965531679984621 </DataArray>
</PointData>
<CellData/>
</Piece>
</UnstructuredGrid>
</VTKFile>
