<?xml version="1.0" ?>
<VTKFile type="UnstructuredGrid" version="0.1" byte_order="LittleEndian">
<UnstructuredGrid>
<Piece NumberOfPoints="20" NumberOfCells="0">
<Points>
<DataArray type="Float32" format="ascii" NumberOfComponents="3">7.280482829856142 7.999753882067636 1.5702057014464155 6.799645079290926 2.626930605881669 1.0968037808216549 5.0024832375424895 2.64705110918811 3.8661471660303337 0.07276927813007399 7.647696854799697 8.997689940552325 6.152667901309596 6.414377588631871 5.784732157406908 3.547387559287567 9.809176437168464 2.076274016545229 9.9270720022672 6.643854798575584 7.09940572038153 7.9560411778842735 3.937906665468791 5.470348243554121 5.562112384247227 7.104236017941139 6.737271775757564 8.227030766605596 6.190304569707796 4.952614456561374 9.338649664131784 0.6879957096861258 3.4062873291509606 3.036670260956771 7.152780011872004 5.762126010668688 2.919799468603851 2.3322112746186954 5.395410123704098 9.448422823970818 4.81652649147125 9.385418573485024 9.572085425787455 8.211105157203537 2.0936868671608497 2.3008382392211364 4.67628336029673 5.27758893636973 5.454839663597067 2.4874923298185134 1.4487283939467326 3.8388954352615112 3.12172608286998 1.716990925916378 8.345109523279442 7.539460733446846 4.61584511491185 1.8863544001928831 8.696505184068263 7.6918697153644215 </DataArray>
</Points>
<Cells>
<DataArray type="Int32" Name="connectivity" format="ascii">0</DataArray>
<DataArray type="Int32" Name="offsets" format="ascii">0</DataArray>
<DataArray type="UInt8" Name="types" format="ascii">1</DataArray>
</Cells>
<PointData>
<DataArray Name="Points" NumberOfComponents="3" type="Float32" format="ascii">7.280482829856142 7.999753882067636 1.5702057014464155 6.799645079290926 2.626930605881669 1.0968037808216549 5.0024832375424895 2.64705110918811 3.8661471660303337 0.07276927813007399 7.647696854799697 8.997689940552325 6.152667901309596 6.414377588631871 5.784732157406908 3.547387559287567 9.809176437168464 2.076274016545229 9.9270720022672 6.643854798575584 7.09940572038153 7.9560411778842735 3.937906665468791 5.470348243554121 5.562112384247227 7.104236017941139 6.737271775757564 8.227030766605596 6.190304569707796 4.952614456561374 9.338649664131784 0.6879957096861258 3.4062873291509606 3.036670260956771 7.152780011872004 5.762126010668688 2.919799468603851 2.3322112746186954 5.395410123704098 9.448422823970818 4.81652649147125 9.385418573485024 9.572085425787455 8.211105157203537 2.0936868671608497 2.3008382392211364 4.67628336029673 5.27758893636973 5.454839663597067 2.4874923298185134 1.4487283939467326 3.8388954352615112 3.12172608286998 1.716990925916378 8.345109523279442 7.539460733446846 4.61584511491185 1.8863544001928831 8.696505184068263 7.6918697153644215 </DataArray>
<DataArray Name="forces" NumberOfComponents="3" type="Float32" format="ascii">0.05647152637076733 0.005208289224546721 0.012900046677695755 -1.625773547074063 -0.16857090105941053 0.42545168238173814 -0.010858188212303475 0.004865953535591067 -0.0769002563724846 0.02383543356527148 -0.03317799606996441 -0.11946275539480204 -0.893119663104315 1.1234644503040159 1.532197005137956 0.0 0.0 0.0 0.007440603466589709 0.05126513614763434 0.09694333724172581 0.007470243884337609 0.06209080484837218 -0.014272126372998191 0.9687378274541676 -1.1316327368920764 -1.5625307592335687 0.06055583410860932 1.5873423493713745 -0.36507811594362605 0.0 0.0 0.0 0.0 0.0 0.0 -0.012208247453682689 0.046233933100732434 -0.002323877719609614 0.0 0.0 0.0 -0.05647152637076733 -0.005208289224546721 -0.012900046677695755 0.012208247453682689 -0.046233933100732434 0.002323877719609614 1.2191051765291914 0.32786783000513753 -0.3170084941602398 0.41752655875717515 -0.16416288248131802 -0.031542931849013765 -0.14364424234279946 -1.641264867631686 0.40968399641223674 -0.03127603703186119 -0.018087140077669928 0.022519418153076228 </DataArray>
</PointData>
<CellData/>
</Piece>
</UnstructuredGrid>
</VTKFile>
