<?xml version="1.0" ?>
<VTKFile type="UnstructuredGrid" version="0.1" byte_order="LittleEndian">
<UnstructuredGrid>
<Piece NumberOfPoints="20" NumberOfCells="0">
<Points>
<DataArray type="Float32" format="ascii" NumberOfComponents="3">1.9312701290199434 1.9664357440827223 0.7321746190930853 5.54560424009155 6.061096869253631 6.955887701757242 1.781723422977502 8.20994330692061 1.3405963162238852 7.429619772552062 3.7652117998848804 3.294736538183478 9.657518103819324 2.6326594374822685 2.0396111292933727 0.6211574574604529 9.869310082957798 8.985881265566231 3.7890630541726322 2.68864346721527 6.317229897216362 2.2330055939093794 0.22124668785864335 0.49407518818031315 4.520472014482373 1.9850747039804177 1.889552682245462 6.657443656729257 1.5752816751707344 5.017595850624576 0.03517979253073 9.999569832885173 9.68400700640886 8.645565858740003 9.25322055169284 5.283509147125311 1.6218387526568223 2.668653420090629 9.755316398490415 9.826818734306721 0.06256699829143886 4.425275615141491 4.719793382811683 8.740192198190389 0.26093414957736727 1.3113298005951932 0.2547167769700281 0.24679507020642788 1.7489311679301145 1.5581780745346627 5.283008062721971 7.039185393624444 1.5187098711292715 2.5867936045124456 6.844671937512954 4.203024811575704 7.5627148382474685 6.942001109371942 0.8850905058026577 7.1448569808456455 </DataArray>
</Points>
<Cells>
<DataArray type="Int32" Name="connectivity" format="ascii">0</DataArray>
<DataArray type="Int32" Name="offsets" format="ascii">0</DataArray>
<DataArray type="UInt8" Name="types" format="ascii">1</DataArray>
</Cells>
<PointData>
<DataArray Name="Points" NumberOfComponents="3" type="Float32" format="ascii">1.9312701290199434 1.9664357440827223 0.7321746190930853 5.54560424009155 6.061096869253631 6.955887701757242 1.781723422977502 8.20994330692061 1.3405963162238852 7.429619772552062 3.7652117998848804 3.294736538183478 9.657518103819324 2.6326594374822685 2.0396111292933727 0.6211574574604529 9.869310082957798 8.985881265566231 3.7890630541726322 2.68864346721527 6.317229897216362 2.2330055939093794 0.22124668785864335 0.49407518818031315 4.520472014482373 1.9850747039804177 1.889552682245462 6.657443656729257 1.5752816751707344 5.017595850624576 0.03517979253073 9.999569832885173 9.68400700640886 8.645565858740003 9.25322055169284 5.283509147125311 1.6218387526568223 2.668653420090629 9.755316398490415 9.826818734306721 0.06256699829143886 4.425275615141491 4.719793382811683 8.740192198190389 0.26093414957736727 1.3113298005951932 0.2547167769700281 0.24679507020642788 1.7489311679301145 1.5581780745346627 5.283008062721971 7.039185393624444 1.5187098711292715 2.5867936045124456 6.844671937512954 4.203024811575704 7.5627148382474685 6.942001109371942 0.8850905058026577 7.1448569808456455 </DataArray>
<DataArray Name="forces" NumberOfComponents="3" type="Float32" format="ascii">-0.6209966356367327 0.7293479163641139 -2.0058744192445923 0.03346266581922339 -0.04786205095972299 0.015631251334103206 0.006164933916782496 0.12747512456273496 -0.059282883612018514 -0.008778601881416716 -0.0505107826635224 -0.015917525466199626 0.0 0.0 0.0 62.796059544077394 -13.49381309549757 -72.98912704941225 0.0 0.0 0.0 52.255856114509754 -1.6239046503824888 14.080289708516018 0.0 0.0 0.0 0.01682054926010345 -0.025443537436947147 0.032407158414380834 -60.70435548401055 14.108996418792694 74.71622593197765 0.4265072021063679 0.2922253952676222 -0.3098767334679902 0.591736396263724 -1.394244147315535 1.8923221221623923 -0.4265072021063679 -0.2922253952676222 0.3098767334679902 0.0 0.0 0.0 -54.32446486912038 1.5461424334760507 -15.634553410387191 0.0 0.0 0.0 0.002036161293812757 0.051509971357914144 0.05885110631571862 -0.03346266581922339 0.04786205095972299 -0.015631251334103206 -0.010078108672499489 0.024444348742555407 -0.07534073926389982 </DataArray>
</PointData>
<CellData/>
</Piece>
</UnstructuredGrid>
</VTKFile>
