<?xml version="1.0" ?>
<VTKFile type="UnstructuredGrid" version="0.1" byte_order="LittleEndian">
<UnstructuredGrid>
<Piece NumberOfPoints="20" NumberOfCells="0">
<Points>
<DataArray type="Float32" format="ascii" NumberOfComponents="3">6.999321526459432 7.392305660149041 0.6789926948688447 6.786635317609756 2.4205503517648497 9.019081844683772 4.94564167376939 4.009059409343325 4.074736834980545 1.8294878962159737 6.5014745979991595 0.356799620354529 5.545096982327424 6.021209131920894 6.161998535330075 4.204620543589041 9.765560193132913 1.3375781812135479 8.974204636439733 6.405725453413139 8.54036398806974 8.247529867594714 4.8537320753708535 7.709149568548663 7.025988556059354 7.233162606967815 7.254273331543255 7.494471219210924 5.89929153510948 2.6478845913891487 8.831935893469767 9.865775350599144 4.034732082789718 1.9381077442926 4.767869926734817 2.5955289726559014 0.3252123071647935 0.3453726025930763 5.9173266509087155 0.38285659189896804 4.591959806404307 9.259555060345145 1.4071993946961212 6.909297413863241 1.6270905613018813 0.7932265194530977 5.741748640303471 3.3290078014156688 5.570954521231655 3.179785826797352 0.870868637102229 3.5676744244070417 4.400563645643742 3.3147338276575766 8.009081584009614 6.8915766635459725 4.59161111038205 0.4667272002568853 8.866303926466143 8.732713863025957 </DataArray>
</Points>
<Cells>
<DataArray type="Int32" Name="connectivity" format="ascii">0</DataArray>
<DataArray type="Int32" Name="offsets" format="ascii">0</DataArray>
<DataArray type="UInt8" Name="types" format="ascii">1</DataArray>
</Cells>
<PointData>
<DataArray Name="Points" NumberOfComponents="3" type="Float32" format="ascii">6.999321526459432 7.392305660149041 0.6789926948688447 6.786635317609756 2.4205503517648497 9.019081844683772 4.94564167376939 4.009059409343325 4.074736834980545 1.8294878962159737 6.5014745979991595 0.356799620354529 5.545096982327424 6.021209131920894 6.161998535330075 4.204620543589041 9.765560193132913 1.3375781812135479 8.974204636439733 6.405725453413139 8.54036398806974 8.247529867594714 4.8537320753708535 7.709149568548663 7.025988556059354 7.233162606967815 7.254273331543255 7.494471219210924 5.89929153510948 2.6478845913891487 8.831935893469767 9.865775350599144 4.034732082789718 1.9381077442926 4.767869926734817 2.5955289726559014 0.3252123071647935 0.3453726025930763 5.9173266509087155 0.38285659189896804 4.591959806404307 9.259555060345145 1.4071993946961212 6.909297413863241 1.6270905613018813 0.7932265194530977 5.741748640303471 3.3290078014156688 5.570954521231655 3.179785826797352 0.870868637102229 3.5676744244070417 4.400563645643742 3.3147338276575766 8.009081584009614 6.8915766635459725 4.59161111038205 0.4667272002568853 8.866303926466143 8.732713863025957 </DataArray>
<DataArray Name="forces" NumberOfComponents="3" type="Float32" format="ascii">0.0 0.0 0.0 -0.03188015348365458 0.01991027870670047 0.04856147052514899 -0.6155183766051225 0.17487937545190066 -0.3394825366850454 -0.5056190333894366 0.4882988222724817 1.5209584806915786 0.06285548944675226 0.051440584990833475 0.04636090051705497 0.0 0.0 0.0 -0.09947585303162289 -0.23046400582351395 -0.11678923148246373 0.09648504412655214 0.206067632983227 0.11036541157688405 -0.030119196268399068 -0.06534418917427665 -0.02475044302726173 0.019027545868072333 0.03668941025491654 0.07186863698245537 0.027323881671138712 0.0087756415644839 0.03444760175828879 -0.1102410374340288 0.3221121886077856 0.3772567353001342 -0.027323881671138712 -0.0087756415644839 -0.03444760175828879 -0.029745484273282424 0.0382999770237301 -0.015186637584213571 0.4854796460172115 -0.5924921665916579 -1.4141039380892662 0.4390617736337231 -0.2874959899578079 -0.34787559793039996 0.03188015348365458 -0.01991027870670047 -0.04856147052514899 0.30683702777765337 -0.10530222978270225 0.20324685671299883 -0.019027545868072333 -0.03668941025491654 -0.07186863698245537 0.0 0.0 0.0 </DataArray>
</PointData>
<CellData/>
</Piece>
</UnstructuredGrid>
</VTKFile>
