<?xml version="1.0" ?>
<VTKFile type="UnstructuredGrid" version="0.1" byte_order="LittleEndian">
<UnstructuredGrid>
<Piece NumberOfPoints="20" NumberOfCells="0">
<Points>
<DataArray type="Float32" format="ascii" NumberOfComponents="3">7.025331564017792 7.448501274228436 0.7614396040661042 6.788499703646544 2.439525581771709 9.210799178737522 4.951444921454165 3.882889928147057 4.055886868935965 1.6671657438852998 6.607282210206498 0.23048742128429317 5.600934168779971 6.056424826353126 6.1258151388174324 4.143819254292429 9.769595176061312 1.405915681398417 9.062339721991233 6.427907258702053 8.407013917672527 8.220518292149974 4.768916378851116 7.501991206312763 6.890928156817979 7.222392854819139 7.207729972659296 7.561883579902965 5.92471223571714 2.8602824964034084 8.878811858530929 9.941839579329757 3.976593238735604 2.0274580776775237 4.985657332444697 2.892086991433417 0.5652408478216291 0.529177214434752 5.869044411029437 0.29645073193650473 4.61265294626054 9.271250932741745 1.2372447653122622 7.0299424691322825 1.6709001212565033 0.9446800613383904 5.646171435398582 3.5056859188531746 5.559614306417854 3.1158295499396105 0.9247912082148915 3.592451922865703 4.282281847830758 3.166512113976742 8.0405309216094 6.953019066460674 4.594662006268268 0.5980753025562765 8.850654334764224 8.636371757146039 </DataArray>
</Points>
<Cells>
<DataArray type="Int32" Name="connectivity" format="ascii">0</DataArray>
<DataArray type="Int32" Name="offsets" format="ascii">0</DataArray>
<DataArray type="UInt8" Name="types" format="ascii">1</DataArray>
</Cells>
<PointData>
<DataArray Name="Points" NumberOfComponents="3" type="Float32" format="ascii">7.025331564017792 7.448501274228436 0.7614396040661042 6.788499703646544 2.439525581771709 9.210799178737522 4.951444921454165 3.882889928147057 4.055886868935965 1.6671657438852998 6.607282210206498 0.23048742128429317 5.600934168779971 6.056424826353126 6.1258151388174324 4.143819254292429 9.769595176061312 1.405915681398417 9.062339721991233 6.427907258702053 8.407013917672527 8.220518292149974 4.768916378851116 7.501991206312763 6.890928156817979 7.222392854819139 7.207729972659296 7.561883579902965 5.92471223571714 2.8602824964034084 8.878811858530929 9.941839579329757 3.976593238735604 2.0274580776775237 4.985657332444697 2.892086991433417 0.5652408478216291 0.529177214434752 5.869044411029437 0.29645073193650473 4.61265294626054 9.271250932741745 1.2372447653122622 7.0299424691322825 1.6709001212565033 0.9446800613383904 5.646171435398582 3.5056859188531746 5.559614306417854 3.1158295499396105 0.9247912082148915 3.592451922865703 4.282281847830758 3.166512113976742 8.0405309216094 6.953019066460674 4.594662006268268 0.5980753025562765 8.850654334764224 8.636371757146039 </DataArray>
<DataArray Name="forces" NumberOfComponents="3" type="Float32" format="ascii">0.0 0.0 0.0 -0.05007639187458868 0.02755900803499635 0.06984421552375039 -0.4839740319351597 0.14223422629286037 -0.31673031907157495 -0.2516516583023533 0.24740163973902485 0.8431369080683186 0.09734321765088932 0.08798419265625394 0.08164152091171703 0.0 0.0 0.0 -0.02815170754971779 -0.16052319096973094 -0.04170436566146982 0.058673464056624096 0.11562872874067386 0.0630784815437744 -0.09734321765088932 -0.08798419265625394 -0.08164152091171703 0.032917967651272736 0.07071964688933587 0.11927831542367058 0.0 0.0 0.0 -0.8263075925593609 0.5713664868023978 0.7792816772945671 0.0 0.0 0.0 -0.030521756506906306 0.04489446222905708 -0.02137411588230459 0.24329759008135843 -0.28691466868964066 -0.7907453327489528 1.2538050115185744 -0.7202344910134526 -0.758175541588926 0.05007639187458868 -0.02755900803499635 -0.06984421552375039 0.06483068119694108 0.04614680686881034 0.24323260804656793 -0.032917967651272736 -0.07071964688933587 -0.11927831542367058 0.0 0.0 0.0 </DataArray>
</PointData>
<CellData/>
</Piece>
</UnstructuredGrid>
</VTKFile>
