<?xml version="1.0" ?>
<VTKFile type="UnstructuredGrid" version="0.1" byte_order="LittleEndian">
<UnstructuredGrid>
<Piece NumberOfPoints="20" NumberOfCells="0">
<Points>
<DataArray type="Float32" format="ascii" NumberOfComponents="3">6.041346570657229 5.299015201661367 7.159420299292882 6.700434757010821 1.55373276666008 0.25636626173037236 2.991472252678871 9.749557896447028 5.71282898842283 2.119309200621874 9.179897521455086 1.524283206526664 1.2181738454711724 0.33197946058653693 7.558140306416506 6.993452906268437 9.56263505141505 8.198414996889607 5.617268776516701 9.42332883630451 5.34444744193851 9.966110636870805 4.766392563635787 5.655233861189019 3.2291371924316015 7.765183848542152 9.368864866426575 4.327798496117206 4.191918321881292 2.8789473753109527 6.689694799083654 6.377626176836537 6.738794056697528 7.847765042685213 4.853846546095089 9.032346190775614 1.156491075264835 6.022795274210031 8.370509265171954 4.335026928897949 3.619401212584347 8.725542043892276 6.060042617945722 3.7918345185211866 3.853489523386601 3.974349544930546 0.15472142896422916 5.236320313955804 6.093971759962575 6.203728355743693 8.370895258364312 2.620455969182544 9.700767597699219 0.10937222935757687 6.856002291500125 4.177896320099059 4.714891982051894 4.452835320155617 9.539554708253906 3.1314368964035917 </DataArray>
</Points>
<Cells>
<DataArray type="Int32" Name="connectivity" format="ascii">0</DataArray>
<DataArray type="Int32" Name="offsets" format="ascii">0</DataArray>
<DataArray type="UInt8" Name="types" format="ascii">1</DataArray>
</Cells>
<PointData>
<DataArray Name="Points" NumberOfComponents="3" type="Float32" format="ascii">6.041346570657229 5.299015201661367 7.159420299292882 6.700434757010821 1.55373276666008 0.25636626173037236 2.991472252678871 9.749557896447028 5.71282898842283 2.119309200621874 9.179897521455086 1.524283206526664 1.2181738454711724 0.33197946058653693 7.558140306416506 6.993452906268437 9.56263505141505 8.198414996889607 5.617268776516701 9.42332883630451 5.34444744193851 9.966110636870805 4.766392563635787 5.655233861189019 3.2291371924316015 7.765183848542152 9.368864866426575 4.327798496117206 4.191918321881292 2.8789473753109527 6.689694799083654 6.377626176836537 6.738794056697528 7.847765042685213 4.853846546095089 9.032346190775614 1.156491075264835 6.022795274210031 8.370509265171954 4.335026928897949 3.619401212584347 8.725542043892276 6.060042617945722 3.7918345185211866 3.853489523386601 3.974349544930546 0.15472142896422916 5.236320313955804 6.093971759962575 6.203728355743693 8.370895258364312 2.620455969182544 9.700767597699219 0.10937222935757687 6.856002291500125 4.177896320099059 4.714891982051894 4.452835320155617 9.539554708253906 3.1314368964035917 </DataArray>
<DataArray Name="forces" NumberOfComponents="3" type="Float32" format="ascii">1.0642065337050575 2.3657529452533415 0.21701632725882292 0.0 0.0 0.0 1.390911901908891 0.5733643294440101 -0.6743279063459169 0.25934052790041395 0.2695472245159831 -0.7322081728772007 0.0 0.0 0.0 0.0 0.0 0.0 -0.3344731130016786 0.14890029442109964 -0.022013021943501614 0.0 0.0 0.0 -0.030229636295299255 0.09612912395059743 0.03677666962668216 0.14143748609596232 -0.03266678562328318 0.07957122773947209 -1.1796529477130593 -1.7515564479463739 1.086870759452221 -0.051254981661221326 0.039450582962061435 -0.01933104416839117 0.0 0.0 0.0 0.0 0.0 0.0 1.3988375463809606 0.7797415102862205 1.5873432455421963 -1.0388906548116144 -0.744825436882166 0.6191457881633983 0.16670139566922304 -0.653647080269029 -1.2845560425426525 -0.2291108916051147 -0.36567634846658054 0.6954315032505186 -1.540275032476923 -0.7470747246629373 -1.6669144732816683 -0.01754813409559797 0.022560813017056244 0.0771951401260202 </DataArray>
</PointData>
<CellData/>
</Piece>
</UnstructuredGrid>
</VTKFile>
