<?xml version="1.0" ?>
<VTKFile type="UnstructuredGrid" version="0.1" byte_order="LittleEndian">
<UnstructuredGrid>
<Piece NumberOfPoints="20" NumberOfCells="0">
<Points>
<DataArray type="Float32" format="ascii" NumberOfComponents="3">5.946491236651996 5.120805244566305 6.843189950228693 6.691364981253177 1.462536827364893 9.33445678386186 2.1210070463518638 0.2723132371709004 6.157128957979694 3.233525923223628 8.390107452979755 1.5907251175910406 0.5520416279855472 9.244671478508542 7.6770337605793975 7.287918022411043 9.537813711497298 7.864438758596251 5.7609195899912145 9.840103895071076 5.807835244222222 0.1558587673619769 4.680395747026582 6.461584528616676 3.8932944688441964 7.841686247876592 9.588877453564187 4.0034433675795285 3.9802966963999973 1.8458886373212984 6.45412312434765 5.9980171465299055 7.03858942765155 7.416708119187495 3.811840569949687 7.604744436578582 0.40745971433421846 6.059019034266122 8.66164906252008 4.750902020554337 3.5158482240960005 8.665865594377609 6.049435946948977 3.33925309400282 3.725738674973091 3.4042806452536536 0.6822366427894535 4.394492887801804 6.162155636705806 6.523808726337252 8.046852407113088 2.5131625718635546 0.23059226509920805 0.8307478921657656 7.1897681632589485 4.043921877599786 5.140333014894224 3.8185933059716155 9.607787538192204 3.5963501466546512 </DataArray>
</Points>
<Cells>
<DataArray type="Int32" Name="connectivity" format="ascii">0</DataArray>
<DataArray type="Int32" Name="offsets" format="ascii">0</DataArray>
<DataArray type="UInt8" Name="types" format="ascii">1</DataArray>
</Cells>
<PointData>
<DataArray Name="Points" NumberOfComponents="3" type="Float32" format="ascii">5.946491236651996 5.120805244566305 6.843189950228693 6.691364981253177 1.462536827364893 9.33445678386186 2.1210070463518638 0.2723132371709004 6.157128957979694 3.233525923223628 8.390107452979755 1.5907251175910406 0.5520416279855472 9.244671478508542 7.6770337605793975 7.287918022411043 9.537813711497298 7.864438758596251 5.7609195899912145 9.840103895071076 5.807835244222222 0.1558587673619769 4.680395747026582 6.461584528616676 3.8932944688441964 7.841686247876592 9.588877453564187 4.0034433675795285 3.9802966963999973 1.8458886373212984 6.45412312434765 5.9980171465299055 7.03858942765155 7.416708119187495 3.811840569949687 7.604744436578582 0.40745971433421846 6.059019034266122 8.66164906252008 4.750902020554337 3.5158482240960005 8.665865594377609 6.049435946948977 3.33925309400282 3.725738674973091 3.4042806452536536 0.6822366427894535 4.394492887801804 6.162155636705806 6.523808726337252 8.046852407113088 2.5131625718635546 0.23059226509920805 0.8307478921657656 7.1897681632589485 4.043921877599786 5.140333014894224 3.8185933059716155 9.607787538192204 3.5963501466546512 </DataArray>
<DataArray Name="forces" NumberOfComponents="3" type="Float32" format="ascii">-6.032902099400438 -10.568410830711523 -2.185131737644243 0.009477398749640653 -0.03057794897218665 -0.023354079240901354 0.019293945943904232 -0.0046796572402908465 -0.03958240313785501 0.0007577289164521113 0.10608600193878104 -0.09648715191185217 0.03231411271590616 0.02116511379553833 -0.031303669624403965 -0.009477398749640653 0.03057794897218665 0.023354079240901354 0.0 0.0 0.0 0.0 0.0 0.0 -0.03069081847588422 0.02551121263035569 0.09312105537743247 0.0 0.0 0.0 5.743387124205475 11.4736010539179 3.9743079997008977 -0.1086201729240231 0.1211607679546219 -0.09580086049875278 0.0 0.0 0.0 0.0 0.0 0.0 0.12672869813731494 0.07831205352789426 0.15720830870737182 0.44090151677728096 -1.2937249003534288 -0.8778972492327538 0.42431611035768346 -1.0484481699777082 -1.774547853139846 0.04182212153720594 -0.106852992110875 0.044121983478525494 -0.1529096603760128 -0.056214874711186 -0.07603585712542767 -0.5043986074148652 1.2524952213399196 0.908027435050907 </DataArray>
</PointData>
<CellData/>
</Piece>
</UnstructuredGrid>
</VTKFile>
