<?xml version="1.0" ?>
<VTKFile type="UnstructuredGrid" version="0.1" byte_order="LittleEndian">
<UnstructuredGrid>
<Piece NumberOfPoints="20" NumberOfCells="0">
<Points>
<DataArray type="Float32" format="ascii" NumberOfComponents="3">5.944412604324575 5.116938545800097 6.836900408711821 6.691185428792964 1.4607308151907283 9.316201034473199 2.1038040801219218 0.2826774975921716 6.165896770891877 3.255589849375719 8.374503737943645 1.5920065252184852 0.5388545555147463 9.223141855538332 7.679384450668021 7.293748967750166 9.53732235180586 7.857825483902498 5.7637599109452395 9.848358596746708 5.817009966486706 0.15961615608457436 4.678692839766994 6.4775518685657385 3.9064438510362613 7.843203813955202 9.593239732545374 3.9970223704302033 3.9761056776589987 1.8254333329286432 6.449615823294755 5.990917338065246 7.044770799288375 7.408163700129971 3.7912146413927204 7.576469361455183 0.39262741015737457 6.05973633644545 8.667414207022023 4.759137170884166 3.5137976698685085 8.664683882506031 6.049263695111531 3.3303138028135026 3.723254129830687 3.3929849046413634 0.692606333536746 4.377793983402558 6.163558702244557 6.530058376336151 8.040221847824272 2.511041796309022 0.24104732933313058 0.8450647192603835 7.1963363034364685 4.041248001329882 5.148713438283534 3.8060060944617207 9.609197364515769 3.6056170390380267 </DataArray>
</Points>
<Cells>
<DataArray type="Int32" Name="connectivity" format="ascii">0</DataArray>
<DataArray type="Int32" Name="offsets" format="ascii">0</DataArray>
<DataArray type="UInt8" Name="types" format="ascii">1</DataArray>
</Cells>
<PointData>
<DataArray Name="Points" NumberOfComponents="3" type="Float32" format="ascii">5.944412604324575 5.116938545800097 6.836900408711821 6.691185428792964 1.4607308151907283 9.316201034473199 2.1038040801219218 0.2826774975921716 6.165896770891877 3.255589849375719 8.374503737943645 1.5920065252184852 0.5388545555147463 9.223141855538332 7.679384450668021 7.293748967750166 9.53732235180586 7.857825483902498 5.7637599109452395 9.848358596746708 5.817009966486706 0.15961615608457436 4.678692839766994 6.4775518685657385 3.9064438510362613 7.843203813955202 9.593239732545374 3.9970223704302033 3.9761056776589987 1.8254333329286432 6.449615823294755 5.990917338065246 7.044770799288375 7.408163700129971 3.7912146413927204 7.576469361455183 0.39262741015737457 6.05973633644545 8.667414207022023 4.759137170884166 3.5137976698685085 8.664683882506031 6.049263695111531 3.3303138028135026 3.723254129830687 3.3929849046413634 0.692606333536746 4.377793983402558 6.163558702244557 6.530058376336151 8.040221847824272 2.511041796309022 0.24104732933313058 0.8450647192603835 7.1963363034364685 4.041248001329882 5.148713438283534 3.8060060944617207 9.609197364515769 3.6056170390380267 </DataArray>
<DataArray Name="forces" NumberOfComponents="3" type="Float32" format="ascii">-6.212706946468385 -10.899802203149369 -2.4311162810704183 0.009770781913822628 -0.031188751744683725 -0.023648077807259107 0.016189381959037012 -0.006157191561717611 -0.03567489225838247 0.0030817767580182294 0.09721286876007845 -0.09570144600896834 0.031484615651173324 0.021316388761585075 -0.030449274651525398 -0.009770781913822628 0.031188751744683725 0.023648077807259107 0.0 0.0 0.0 0.0 0.0 0.0 -0.03136941479659264 0.02560722935477037 0.09633519105828534 0.0 0.0 0.0 5.963060183502543 11.761397319556607 4.086431049753853 -0.10878799045651563 0.12338633259829597 -0.09835189579585138 0.0 0.0 0.0 0.0 0.0 0.0 0.120528292546846 0.07470118668901775 0.14977968726297092 0.4599748547798183 -1.3467889860535118 -0.8829669434498068 0.38530958590235986 -1.0068262032212563 -1.64294011479109 0.039214549060417145 -0.09830885318478337 0.03934062546315818 -0.14740312502684777 -0.052856432473296994 -0.06380244535946372 -0.5185757634118714 1.3071185439235788 0.9091167398472394 </DataArray>
</PointData>
<CellData/>
</Piece>
</UnstructuredGrid>
</VTKFile>
