<?xml version="1.0" ?>
<VTKFile type="UnstructuredGrid" version="0.1" byte_order="LittleEndian">
<UnstructuredGrid>
<Piece NumberOfPoints="20" NumberOfCells="0">
<Points>
<DataArray type="Float32" format="ascii" NumberOfComponents="3">2.803093574068611 2.61408629332801 2.7933781048008814 5.932251516738388 6.02755924489223 7.402434310739665 7.8712006551003375 9.948541853032975 3.377021627181535 6.131551814897045 6.480781684404788 1.6947754617957898 8.55083934228549 5.069666148337456 2.822276225707265 1.852709237400088 8.790484126228408 9.487679451026704 3.7859036686530585 6.71678783737253 2.3661971608333148 4.650889480402061 8.008425347957386 1.4469409736426138 4.4674452668387 1.4584630340451477 9.998727253445805 6.6456378725854055 3.080101736019537 7.517715604424958 8.116180203032936 2.805039667300647 9.923449672068688 6.883965541548961 7.249306821477404 9.871387863864697 8.405498773066046 3.584820846420821 5.126946093870805 9.960784734378178 3.418236241077019 3.598998406345441 3.7176772937018776 8.54321685373877 4.278837887555012 3.2720375183445016 4.423848475498079 5.69847488625171 1.8356549496069599 8.340336777672352 7.205042207151525 6.218977223059973 4.858879779620796 2.247904847653316 0.79950784170014 3.524692979759118 7.066572458610669 9.550411137582673 5.21842872084062 1.5281600212464463 </DataArray>
</Points>
<Cells>
<DataArray type="Int32" Name="connectivity" format="ascii">0</DataArray>
<DataArray type="Int32" Name="offsets" format="ascii">0</DataArray>
<DataArray type="UInt8" Name="types" format="ascii">1</DataArray>
</Cells>
<PointData>
<DataArray Name="Points" NumberOfComponents="3" type="Float32" format="ascii">2.803093574068611 2.61408629332801 2.7933781048008814 5.932251516738388 6.02755924489223 7.402434310739665 7.8712006551003375 9.948541853032975 3.377021627181535 6.131551814897045 6.480781684404788 1.6947754617957898 8.55083934228549 5.069666148337456 2.822276225707265 1.852709237400088 8.790484126228408 9.487679451026704 3.7859036686530585 6.71678783737253 2.3661971608333148 4.650889480402061 8.008425347957386 1.4469409736426138 4.4674452668387 1.4584630340451477 9.998727253445805 6.6456378725854055 3.080101736019537 7.517715604424958 8.116180203032936 2.805039667300647 9.923449672068688 6.883965541548961 7.249306821477404 9.871387863864697 8.405498773066046 3.584820846420821 5.126946093870805 9.960784734378178 3.418236241077019 3.598998406345441 3.7176772937018776 8.54321685373877 4.278837887555012 3.2720375183445016 4.423848475498079 5.69847488625171 1.8356549496069599 8.340336777672352 7.205042207151525 6.218977223059973 4.858879779620796 2.247904847653316 0.79950784170014 3.524692979759118 7.066572458610669 9.550411137582673 5.21842872084062 1.5281600212464463 </DataArray>
<DataArray Name="forces" NumberOfComponents="3" type="Float32" format="ascii">0.0 0.0 0.0 0.0 0.0 0.0 0.0 0.0 0.0 -0.05185557927416274 -0.3473863775408099 0.05585149959558415 0.40092216512776424 0.00741595705918046 -0.5168605779347639 -0.0004706176343570511 -0.012421936515866245 -0.06298998544170784 0.21566804778971033 0.2538405198406113 -0.19597105885138547 -0.09430146429545747 -0.33921339456458394 0.19687391372781476 0.0 0.0 0.0 0.0 0.0 0.0 0.0 0.0 0.0 -0.043773903880663184 -0.04471123304699283 0.10608099057973992 0.07011668163406092 -0.007510104269296435 -0.06888419507711005 -0.11184742939138989 0.05638817095562954 0.04589522147606476 0.0 0.0 0.0 0.0 0.0 0.0 0.0004706176343570511 0.012421936515866245 0.06298998544170784 0.022813005643912775 0.4818591240982042 -0.15087675151039176 0.0 0.0 0.0 -0.40774152335377495 -0.06068266253194236 0.5278909579944476 </DataArray>
</PointData>
<CellData/>
</Piece>
</UnstructuredGrid>
</VTKFile>
