<?xml version="1.0" ?>
<VTKFile type="UnstructuredGrid" version="0.1" byte_order="LittleEndian">
<UnstructuredGrid>
<Piece NumberOfPoints="20" NumberOfCells="0">
<Points>
<DataArray type="Float32" format="ascii" NumberOfComponents="3">4.783684510261849 2.947179824725867 3.815196363919194 1.0046894482711888 4.2965692449877 3.178458063844397 8.430972342310703 3.987954463102085 0.791830299453548 3.7946471226783136 1.031432614758283 2.1559647927630357 5.10926240056849 5.274501580099047 8.342996622780397 0.09257414821991324 9.381200652581677 4.737928618419557 2.3182632996329455 0.106870682209586 7.717397374134949 2.3531569394239464 3.77674908031028 4.033381124827944 0.14539211079166314 8.553605847281451 1.7055593481155324 0.9399543317696822 1.995082759483866 2.0937296144403597 4.570406301543943 3.0232870919493635 0.006993573376448126 3.345278571823348 4.225020484603908 4.011015255331072 3.3667630411837823 6.426580850253551 1.302634032630121 3.2781688612445414 7.536563233002518 8.10614225296082 6.0111698913445855 8.91398020877587 2.6131887544895345 8.395002089278371 1.132627913102022 4.565357537971035 6.81911744011439 9.368723807224999 4.875664891885343 1.185421972268132 9.555285329355993 9.534984442864202 0.19978133315830396 2.625612915278783 9.271926409271178 7.716396875921831 0.37206542466751164 7.9764351118840064 </DataArray>
</Points>
<Cells>
<DataArray type="Int32" Name="connectivity" format="ascii">0</DataArray>
<DataArray type="Int32" Name="offsets" format="ascii">0</DataArray>
<DataArray type="UInt8" Name="types" format="ascii">1</DataArray>
</Cells>
<PointData>
<DataArray Name="Points" NumberOfComponents="3" type="Float32" format="ascii">4.783684510261849 2.947179824725867 3.815196363919194 1.0046894482711888 4.2965692449877 3.178458063844397 8.430972342310703 3.987954463102085 0.791830299453548 3.7946471226783136 1.031432614758283 2.1559647927630357 5.10926240056849 5.274501580099047 8.342996622780397 0.09257414821991324 9.381200652581677 4.737928618419557 2.3182632996329455 0.106870682209586 7.717397374134949 2.3531569394239464 3.77674908031028 4.033381124827944 0.14539211079166314 8.553605847281451 1.7055593481155324 0.9399543317696822 1.995082759483866 2.0937296144403597 4.570406301543943 3.0232870919493635 0.006993573376448126 3.345278571823348 4.225020484603908 4.011015255331072 3.3667630411837823 6.426580850253551 1.302634032630121 3.2781688612445414 7.536563233002518 8.10614225296082 6.0111698913445855 8.91398020877587 2.6131887544895345 8.395002089278371 1.132627913102022 4.565357537971035 6.81911744011439 9.368723807224999 4.875664891885343 1.185421972268132 9.555285329355993 9.534984442864202 0.19978133315830396 2.625612915278783 9.271926409271178 7.716396875921831 0.37206542466751164 7.9764351118840064 </DataArray>
<DataArray Name="forces" NumberOfComponents="3" type="Float32" format="ascii">-0.1696570464938647 0.15071869939582333 0.023096438826376877 0.5046993623044117 -0.18097444905631455 0.3093278959297456 0.0 0.0 0.0 0.0 0.0 0.0 0.0 0.0 0.0 -0.03158158682038609 0.03258350760214708 -0.003210507931705115 -0.04669088982666823 -0.022733996648938777 0.07491318998206452 -2.8709409344007746 -0.9066272537267933 -0.24151003979990432 0.0 0.0 0.0 0.0 0.0 0.0 0.0 0.0 0.0 2.5358986185902275 0.9368830033872846 -0.09091429495621817 0.0 0.0 0.0 0.0 0.0 0.0 0.015037625684865913 0.00846374746291271 0.042109502438496614 -0.004081973916354731 -0.07250210268910626 0.010233017586362378 0.020625935051874905 0.031454847624046475 -0.049132012093153876 0.04669088982666823 0.022733996648938777 -0.07491318998206452 0.0 0.0 0.0 0.0 0.0 0.0 </DataArray>
</PointData>
<CellData/>
</Piece>
</UnstructuredGrid>
</VTKFile>
