<?xml version="1.0" ?>
<VTKFile type="UnstructuredGrid" version="0.1" byte_order="LittleEndian">
<UnstructuredGrid>
<Piece NumberOfPoints="20" NumberOfCells="0">
<Points>
<DataArray type="Float32" format="ascii" NumberOfComponents="3">4.361194531255874 2.1852817027308866 2.747252502477624 1.253712298709984 5.807764969201251 1.4606135683560935 9.063197451950144 4.7579034345445335 2.6394961656132994 7.568760922616121 8.469844210793172 2.3641625800963904 3.4965192552008952 6.533202602662166 8.364603536998088 1.0884349891214555 9.371460969836217 3.6178559701860924 0.5389876781842594 9.814532178180698 8.109000404958735 4.562432067559623 3.107999883723392 6.769918856853758 2.3580235344774714 8.80416338832981 2.4600318737232483 9.604358220755584 0.724132435797336 8.958533251387918 3.9280716246983105 1.9698833496323924 1.0381705881547583 2.3184718881259796 0.9946446542929672 8.937565047329343 0.8684675399056384 6.60051906274102 2.24649486488492 0.46827577956663236 3.3160782759492227 7.9029210062321305 6.003572013601373 7.33625273344316 2.2254266734842645 6.678289199901402 5.334961419018254 5.399168681641569 7.052166220705231 0.36996343315786046 3.746945273324025 0.6970970148756127 8.765094276056187 8.361254659141396 1.4855899874316547 2.6912378503068077 0.43929139879929097 5.516007862580992 0.6059515220009359 9.487288988702474 </DataArray>
</Points>
<Cells>
<DataArray type="Int32" Name="connectivity" format="ascii">0</DataArray>
<DataArray type="Int32" Name="offsets" format="ascii">0</DataArray>
<DataArray type="UInt8" Name="types" format="ascii">1</DataArray>
</Cells>
<PointData>
<DataArray Name="Points" NumberOfComponents="3" type="Float32" format="ascii">4.361194531255874 2.1852817027308866 2.747252502477624 1.253712298709984 5.807764969201251 1.4606135683560935 9.063197451950144 4.7579034345445335 2.6394961656132994 7.568760922616121 8.469844210793172 2.3641625800963904 3.4965192552008952 6.533202602662166 8.364603536998088 1.0884349891214555 9.371460969836217 3.6178559701860924 0.5389876781842594 9.814532178180698 8.109000404958735 4.562432067559623 3.107999883723392 6.769918856853758 2.3580235344774714 8.80416338832981 2.4600318737232483 9.604358220755584 0.724132435797336 8.958533251387918 3.9280716246983105 1.9698833496323924 1.0381705881547583 2.3184718881259796 0.9946446542929672 8.937565047329343 0.8684675399056384 6.60051906274102 2.24649486488492 0.46827577956663236 3.3160782759492227 7.9029210062321305 6.003572013601373 7.33625273344316 2.2254266734842645 6.678289199901402 5.334961419018254 5.399168681641569 7.052166220705231 0.36996343315786046 3.746945273324025 0.6970970148756127 8.765094276056187 8.361254659141396 1.4855899874316547 2.6912378503068077 0.43929139879929097 5.516007862580992 0.6059515220009359 9.487288988702474 </DataArray>
<DataArray Name="forces" NumberOfComponents="3" type="Float32" format="ascii">-0.0982362765504075 -0.04885433640918219 -0.38763556727380605 -0.6417169074438702 1.3205207693122034 1.3090724888552823 0.0 0.0 0.0 -0.19290188497096672 -0.09162400141514779 0.013106323198342446 0.0 0.0 0.0 0.250008878691075 -0.111712911049307 -0.2280000911610392 -0.8578564638438662 2.9302979041697066 -0.030033697219091438 0.0 0.0 0.0 -0.250008878691075 0.111712911049307 0.2280000911610392 0.5903083812779396 -0.5996652364398465 -0.5254350367740513 0.0982362765504075 0.04885433640918219 0.38763556727380605 -0.07277791369194968 -0.0019298283401944227 0.005043033772072082 0.6417169074438702 -1.3205207693122034 -1.3090724888552823 0.0 0.0 0.0 0.18197933147435175 0.1317989272892515 0.01613036445080308 0.0 0.0 0.0 0.01092255349661496 -0.0401749258741037 -0.029236687649145526 0.3231661838547355 -2.2937480385424234 0.581365671963277 0.017159812403140892 -0.034954800847242284 -0.030939971742206356 0.0 0.0 0.0 </DataArray>
</PointData>
<CellData/>
</Piece>
</UnstructuredGrid>
</VTKFile>
