<?xml version="1.0" ?>
<VTKFile type="UnstructuredGrid" version="0.1" byte_order="LittleEndian">
<UnstructuredGrid>
<Piece NumberOfPoints="20" NumberOfCells="0">
<Points>
<DataArray type="Float32" format="ascii" NumberOfComponents="3">4.28270166380508 2.045430700681796 2.549093658432979 1.2996406714938016 6.036216000941258 1.124684340549983 9.179338298484083 4.8992279841277195 2.978401973726545 8.2590468347749 7.994522957108473 2.403232216215351 3.200556649149763 6.764109616661405 8.368548151678114 1.2726087738132048 9.368904244118303 3.4106600010636994 0.21035699064017077 9.829094144853197 8.153293083118143 4.963245037809644 2.9836281882719056 7.274633747111324 2.7623754677026824 8.850445594227065 2.6001076510398904 9.318468066203794 0.3838435188727772 8.43877311081076 3.8072647105343895 1.7764122667412685 1.229595032660033 2.136179704001081 0.40521807894366857 8.004274366575487 0.40987259141168153 6.681494335027253 2.4405474762117843 9.952983359451874 2.541878096985906 7.865664701945651 6.004325309112363 7.052785959002365 2.154200806756842 6.3633865477946845 6.10579998396545 5.552116633482601 7.094777662529643 0.5531316495119172 3.539120088602331 0.6069318138000126 8.555064175938421 8.176031058348432 1.7675033516789214 2.806262617178341 0.5953984047869623 5.1123585210079225 0.6488775568964333 9.764456984592817 </DataArray>
</Points>
<Cells>
<DataArray type="Int32" Name="connectivity" format="ascii">0</DataArray>
<DataArray type="Int32" Name="offsets" format="ascii">0</DataArray>
<DataArray type="UInt8" Name="types" format="ascii">1</DataArray>
</Cells>
<PointData>
<DataArray Name="Points" NumberOfComponents="3" type="Float32" format="ascii">4.28270166380508 2.045430700681796 2.549093658432979 1.2996406714938016 6.036216000941258 1.124684340549983 9.179338298484083 4.8992279841277195 2.978401973726545 8.2590468347749 7.994522957108473 2.403232216215351 3.200556649149763 6.764109616661405 8.368548151678114 1.2726087738132048 9.368904244118303 3.4106600010636994 0.21035699064017077 9.829094144853197 8.153293083118143 4.963245037809644 2.9836281882719056 7.274633747111324 2.7623754677026824 8.850445594227065 2.6001076510398904 9.318468066203794 0.3838435188727772 8.43877311081076 3.8072647105343895 1.7764122667412685 1.229595032660033 2.136179704001081 0.40521807894366857 8.004274366575487 0.40987259141168153 6.681494335027253 2.4405474762117843 9.952983359451874 2.541878096985906 7.865664701945651 6.004325309112363 7.052785959002365 2.154200806756842 6.3633865477946845 6.10579998396545 5.552116633482601 7.094777662529643 0.5531316495119172 3.539120088602331 0.6069318138000126 8.555064175938421 8.176031058348432 1.7675033516789214 2.806262617178341 0.5953984047869623 5.1123585210079225 0.6488775568964333 9.764456984592817 </DataArray>
<DataArray Name="forces" NumberOfComponents="3" type="Float32" format="ascii">-0.5040232112468295 -0.28519351309678015 -1.3988351768256595 -0.26347418136254225 0.19107696109822378 0.3896475612180234 0.04723954614645371 0.06842024152637236 -0.02064794333766783 -0.040485168145289574 -0.016909574101734288 -0.0044715404410855695 0.0 0.0 0.0 0.3418866005151375 -0.11898109015728435 -0.1860136816226572 2.9792776305479114 -3.2846734494050995 -0.6830313244389996 0.0 0.0 0.0 -0.3418866005151375 0.11898109015728435 0.1860136816226572 -2.139805396722545 1.3660603201424004 0.6798563611441962 0.5004777843649899 0.2708768049519024 1.3334268897631205 -0.19685562154552244 -0.0883010425130262 0.016360757086080577 0.21623463521608854 -0.25949720262459613 -0.36899961788035557 -0.017836017552245242 -0.060661646808454386 0.016109890098205872 0.040485168145289574 0.016909574101734288 0.0044715404410855695 0.0 0.0 0.0 0.0 0.0 0.0 -0.6247805947275986 2.0675758185841797 -0.02929568388948303 0.04840334229112963 -0.024438250486721533 0.015049425426925894 -0.04485791540929007 0.03875495863159928 0.05035886163561296 </DataArray>
</PointData>
<CellData/>
</Piece>
</UnstructuredGrid>
</VTKFile>
