<?xml version="1.0" ?>
<VTKFile type="UnstructuredGrid" version="0.1" byte_order="LittleEndian">
<UnstructuredGrid>
<Piece NumberOfPoints="20" NumberOfCells="0">
<Points>
<DataArray type="Float32" format="ascii" NumberOfComponents="3">4.169163690947323 1.754963812564669 2.1487707148520343 1.4088531199671543 6.599523244713589 0.3064451799966525 9.465213199288652 5.2485420440861805 3.8080716039788194 9.333146101420876 7.50677356488681 2.1320915952187 2.4749308080098618 7.330213417900128 8.37822250426169 1.7292062441253502 9.361017064891842 2.9004817900459376 9.627688145074444 9.759506370060885 8.272719233055502 5.945883287454857 2.6787169349069706 8.511999284517023 3.748615241315923 8.96553072486094 2.945733133759682 8.404325324322619 9.640808515039414 7.153208336429864 3.4329269064128036 1.2488789001878948 1.6107111614609755 1.6870535265502278 8.959137539869188 5.716721230419832 9.905672603255418 6.196203877062241 3.279033440141875 8.68912859203439 0.636176338387914 7.774353633755393 6.006538775814293 6.358025744267167 1.9796203886440833 5.59136714262983 7.995597756094059 5.9270858057380345 7.199245804111604 1.0021845787568933 3.0296099999974007 0.3789319864355412 8.062902788929128 7.721879399834985 2.4595042153170015 3.0876321148080423 0.978438873485696 4.121178528201487 0.7555647294557213 0.4463347990097622 </DataArray>
</Points>
<Cells>
<DataArray type="Int32" Name="connectivity" format="ascii">0</DataArray>
<DataArray type="Int32" Name="offsets" format="ascii">0</DataArray>
<DataArray type="UInt8" Name="types" format="ascii">1</DataArray>
</Cells>
<PointData>
<DataArray Name="Points" NumberOfComponents="3" type="Float32" format="ascii">4.169163690947323 1.754963812564669 2.1487707148520343 1.4088531199671543 6.599523244713589 0.3064451799966525 9.465213199288652 5.2485420440861805 3.8080716039788194 9.333146101420876 7.50677356488681 2.1320915952187 2.4749308080098618 7.330213417900128 8.37822250426169 1.7292062441253502 9.361017064891842 2.9004817900459376 9.627688145074444 9.759506370060885 8.272719233055502 5.945883287454857 2.6787169349069706 8.511999284517023 3.748615241315923 8.96553072486094 2.945733133759682 8.404325324322619 9.640808515039414 7.153208336429864 3.4329269064128036 1.2488789001878948 1.6107111614609755 1.6870535265502278 8.959137539869188 5.716721230419832 9.905672603255418 6.196203877062241 3.279033440141875 8.68912859203439 0.636176338387914 7.774353633755393 6.006538775814293 6.358025744267167 1.9796203886440833 5.59136714262983 7.995597756094059 5.9270858057380345 7.199245804111604 1.0021845787568933 3.0296099999974007 0.3789319864355412 8.062902788929128 7.721879399834985 2.4595042153170015 3.0876321148080423 0.978438873485696 4.121178528201487 0.7555647294557213 0.4463347990097622 </DataArray>
<DataArray Name="forces" NumberOfComponents="3" type="Float32" format="ascii">6.963181598884258 4.733494581243005 4.923003006236256 0.02996056854052805 0.02053498845458307 -0.05418990406207942 0.6728677874723429 1.4476955539691438 -0.8081851257653122 0.10202402434307462 -0.23354306447905032 0.20438463954346348 -0.09007780020784552 0.00047993588838351683 0.03536473581488085 0.1465016635203084 -0.028691268977553037 0.0032828402467334366 -1.595707601998323 0.9043122251465424 -1.1335559466806948 0.0 0.0 0.0 -0.1465016635203084 0.028691268977553037 -0.0032828402467334366 0.991766179182018 1.9187451626367529 1.5865342347808684 -6.349997308083278 -5.221066380167063 -6.3178946857247755 0.0 0.0 0.0 -0.7748918118154176 -1.2141524894900935 0.6038004862218487 0.6919975728090781 -3.021922751055677 -0.5175443215310493 0.0 0.0 0.0 0.0 0.0 0.0 0.0 0.0 0.0 -0.027938918325455732 0.17785043892941532 0.08339120167807425 0.0758366548776139 -0.1099884170085069 0.05030811102867326 -0.6890209456785938 0.5975602159325639 1.3445835684598464 </DataArray>
</PointData>
<CellData/>
</Piece>
</UnstructuredGrid>
</VTKFile>
