<?xml version="1.0" ?>
<VTKFile type="UnstructuredGrid" version="0.1" byte_order="LittleEndian">
<UnstructuredGrid>
<Piece NumberOfPoints="20" NumberOfCells="0">
<Points>
<DataArray type="Float32" format="ascii" NumberOfComponents="3">4.330058032120916 1.5961729781649732 1.9801571584202964 1.5453101029015697 7.296487142599544 9.29321234319113 8.998846915437268 4.86005598273972 5.4788391182584455 9.470822208732681 8.222309396856133 1.0753402310667508 1.5776291167124548 8.02314490872054 8.395940108633223 2.2970221704117146 9.352961449103113 2.2714209635859395 8.966725789634891 9.647139567875902 8.405377185325182 7.154786923531533 2.3035958534645835 0.03428451803597454 4.9573235285964 9.108163431466654 3.3713672994765647 7.209646587148631 8.792430907827049 5.600289006174602 2.5030690181769817 0.36824972343910334 2.0344451236224557 1.1338968507470335 7.179918209273228 2.902446524823718 1.2874153968602995 5.101822367687918 4.383402669142369 7.1527130925335 8.243636520656038 7.645654372632228 6.009262384858501 5.503288037037719 1.764840583564399 4.641580111275699 0.32054633101527585 6.388396563710179 7.327769109873622 1.5546378535516994 2.402778509411072 0.09722319260348329 7.4665916537393775 7.165607682314513 3.3127864666345817 3.4310477658426706 1.450867039820778 3.0669216233110665 0.9195045677925564 1.006843015992756 </DataArray>
</Points>
<Cells>
<DataArray type="Int32" Name="connectivity" format="ascii">0</DataArray>
<DataArray type="Int32" Name="offsets" format="ascii">0</DataArray>
<DataArray type="UInt8" Name="types" format="ascii">1</DataArray>
</Cells>
<PointData>
<DataArray Name="Points" NumberOfComponents="3" type="Float32" format="ascii">4.330058032120916 1.5961729781649732 1.9801571584202964 1.5453101029015697 7.296487142599544 9.29321234319113 8.998846915437268 4.86005598273972 5.4788391182584455 9.470822208732681 8.222309396856133 1.0753402310667508 1.5776291167124548 8.02314490872054 8.395940108633223 2.2970221704117146 9.352961449103113 2.2714209635859395 8.966725789634891 9.647139567875902 8.405377185325182 7.154786923531533 2.3035958534645835 0.03428451803597454 4.9573235285964 9.108163431466654 3.3713672994765647 7.209646587148631 8.792430907827049 5.600289006174602 2.5030690181769817 0.36824972343910334 2.0344451236224557 1.1338968507470335 7.179918209273228 2.902446524823718 1.2874153968602995 5.101822367687918 4.383402669142369 7.1527130925335 8.243636520656038 7.645654372632228 6.009262384858501 5.503288037037719 1.764840583564399 4.641580111275699 0.32054633101527585 6.388396563710179 7.327769109873622 1.5546378535516994 2.402778509411072 0.09722319260348329 7.4665916537393775 7.165607682314513 3.3127864666345817 3.4310477658426706 1.450867039820778 3.0669216233110665 0.9195045677925564 1.006843015992756 </DataArray>
<DataArray Name="forces" NumberOfComponents="3" type="Float32" format="ascii">-0.47399191271041496 -0.14798430872174603 -0.29039079680719954 0.0386407350855622 0.8687947721069063 -1.0727820755318085 0.0 0.0 0.0 0.0 0.0 0.0 -0.17113221402302822 -0.9186044646101951 0.9626713551590846 -1.1410023292241904 -5.734682137827454 1.2931349503719105 -0.03711193217535906 -0.02871353104615126 -0.015542769651935935 0.0027849157348612897 -0.012057801804995018 0.038131418754648934 0.0 0.0 0.0 -0.0032936358693088 -0.03174807537602659 0.11832557938602967 2.242410488946483 6.828752872774188 -3.153685414565762 0.0 0.0 0.0 0.0 0.0 0.0 0.04040556804466786 0.06046160642217785 -0.10278280973409373 0.0 0.0 0.0 0.0 0.0 0.0 -0.0027849157348612897 0.012057801804995018 -0.038131418754648934 0.13249147893746602 0.049809692503288795 0.11011072037272385 0.04982710054363294 -0.08987422201945147 0.0259252227733322 -0.6772433475555104 -0.8562122042055367 2.125016038227719 </DataArray>
</PointData>
<CellData/>
</Piece>
</UnstructuredGrid>
</VTKFile>
