<?xml version="1.0" ?>
<VTKFile type="UnstructuredGrid" version="0.1" byte_order="LittleEndian">
<UnstructuredGrid>
<Piece NumberOfPoints="20" NumberOfCells="0">
<Points>
<DataArray type="Float32" format="ascii" NumberOfComponents="3">4.435839697115236 1.4695940542675998 1.8446189308423067 1.6889756157441833 7.727288874278147 8.602033963304391 8.491010142735304 4.417113805832329 6.8534233059783105 9.573885713325408 8.758003320457235 0.2841520211388175 0.8616073158206715 8.632206166771375 8.339789703973869 2.758587075475181 8.920266812404567 1.800915786364136 8.464688148351026 9.562322400863824 8.500968014050912 8.059528795856759 2.021813479428918 1.1774322825416346 5.862601440223603 9.214393140829259 3.6907691375217833 6.315951819753164 8.160391893083686 4.449414640685269 1.617773933436096 0.11771546881091291 2.633855669819111 0.720005273305717 5.848119676366916 0.795112171678511 2.4805886448532197 4.43493652923369 5.086334738141736 6.008514243014842 6.450176937551044 7.540367649105796 6.011295699327454 4.863374049078444 1.6040433035580361 3.930509606518596 2.0611495421862394 6.7337629065770255 7.424309439994458 1.969182297476759 1.9300239214324408 9.888858485232497 7.021264993658275 6.751356863198071 3.9526898068145986 3.686162551989549 1.8051523349324696 2.443924372893685 1.0692374360905386 1.153099823181439 </DataArray>
</Points>
<Cells>
<DataArray type="Int32" Name="connectivity" format="ascii">0</DataArray>
<DataArray type="Int32" Name="offsets" format="ascii">0</DataArray>
<DataArray type="UInt8" Name="types" format="ascii">1</DataArray>
</Cells>
<PointData>
<DataArray Name="Points" NumberOfComponents="3" type="Float32" format="ascii">4.435839697115236 1.4695940542675998 1.8446189308423067 1.6889756157441833 7.727288874278147 8.602033963304391 8.491010142735304 4.417113805832329 6.8534233059783105 9.573885713325408 8.758003320457235 0.2841520211388175 0.8616073158206715 8.632206166771375 8.339789703973869 2.758587075475181 8.920266812404567 1.800915786364136 8.464688148351026 9.562322400863824 8.500968014050912 8.059528795856759 2.021813479428918 1.1774322825416346 5.862601440223603 9.214393140829259 3.6907691375217833 6.315951819753164 8.160391893083686 4.449414640685269 1.617773933436096 0.11771546881091291 2.633855669819111 0.720005273305717 5.848119676366916 0.795112171678511 2.4805886448532197 4.43493652923369 5.086334738141736 6.008514243014842 6.450176937551044 7.540367649105796 6.011295699327454 4.863374049078444 1.6040433035580361 3.930509606518596 2.0611495421862394 6.7337629065770255 7.424309439994458 1.969182297476759 1.9300239214324408 9.888858485232497 7.021264993658275 6.751356863198071 3.9526898068145986 3.686162551989549 1.8051523349324696 2.443924372893685 1.0692374360905386 1.153099823181439 </DataArray>
<DataArray Name="forces" NumberOfComponents="3" type="Float32" format="ascii">-0.12028804133231681 0.05371477575272428 -0.037441410457378865 -1.5774038958889174 1.7252535089488326 -0.49997699498604403 0.0 0.0 0.0 -0.005593365206771846 0.025691793502990758 -0.11649293876330703 1.5258165255330902 -1.750212009063403 0.5241115041153573 -0.19887744655961404 0.270517940965479 0.11540185158274227 0.04007574825615728 -0.02906036760434366 0.06442714591075684 19.985573423334067 1.6559072729039288 -23.678396002939216 0.5983717465120784 -1.3911636471858386 1.0013271306456892 -0.5983717465120784 1.3911636471858386 -1.0013271306456892 0.2816596866187012 -0.08988012510562915 -0.30493306375036155 0.0 0.0 0.0 0.0 0.0 0.0 0.0 0.0 0.0 -0.047472844986817746 -0.027147293768689025 0.004637710358554182 0.0 0.0 0.0 -19.985573423334067 -1.6559072729039288 23.678396002939216 0.01710498730644175 0.028327074215923422 0.027931283723236913 0.06373842459308646 -0.04747503788497138 -0.003309039752501793 0.021240221666960934 -0.1597302599589137 0.22564395201894574 </DataArray>
</PointData>
<CellData/>
</Piece>
</UnstructuredGrid>
</VTKFile>
