<?xml version="1.0" ?>
<VTKFile type="UnstructuredGrid" version="0.1" byte_order="LittleEndian">
<UnstructuredGrid>
<Piece NumberOfPoints="20" NumberOfCells="0">
<Points>
<DataArray type="Float32" format="ascii" NumberOfComponents="3">4.481599952834553 1.4137680054883937 1.7841345771802481 1.7642786173271248 7.888321363853111 8.319842771725531 8.26611100053872 4.220953698916199 7.462167731968536 9.619489197361741 8.99535047911325 9.933263609114077 0.5324528381419172 8.931511583499228 8.29100177264524 2.9687182954606497 8.67577415326125 1.5914302507166644 8.242571403238346 9.524625708378853 8.543576950592495 8.537417686940692 1.8944640884403527 1.6223998121879255 6.265279840084747 9.256118007506412 3.835557156430645 5.918402246395843 7.8858022170449535 3.9364222318829216 1.2211237181196242 0.06151473536424761 2.898158693335208 0.5367104318674196 5.258323183222692 9.86186410099993 3.0090003428018965 4.139588944419513 5.397645449452173 5.501798851497705 5.655937264322754 7.493721676474061 6.012008949732461 4.579883325356121 1.532858810557343 3.615600552002924 2.832000534917823 6.88669863480734 7.389845524279261 2.1553263194164765 1.7819447985337957 9.796786416570272 6.824244962778831 6.568151205386896 4.23640878096799 3.7987361964335418 1.9620620883549582 2.1678325676045036 1.1339439765824877 1.2205624410446527 </DataArray>
</Points>
<Cells>
<DataArray type="Int32" Name="connectivity" format="ascii">0</DataArray>
<DataArray type="Int32" Name="offsets" format="ascii">0</DataArray>
<DataArray type="UInt8" Name="types" format="ascii">1</DataArray>
</Cells>
<PointData>
<DataArray Name="Points" NumberOfComponents="3" type="Float32" format="ascii">4.481599952834553 1.4137680054883937 1.7841345771802481 1.7642786173271248 7.888321363853111 8.319842771725531 8.26611100053872 4.220953698916199 7.462167731968536 9.619489197361741 8.99535047911325 9.933263609114077 0.5324528381419172 8.931511583499228 8.29100177264524 2.9687182954606497 8.67577415326125 1.5914302507166644 8.242571403238346 9.524625708378853 8.543576950592495 8.537417686940692 1.8944640884403527 1.6223998121879255 6.265279840084747 9.256118007506412 3.835557156430645 5.918402246395843 7.8858022170449535 3.9364222318829216 1.2211237181196242 0.06151473536424761 2.898158693335208 0.5367104318674196 5.258323183222692 9.86186410099993 3.0090003428018965 4.139588944419513 5.397645449452173 5.501798851497705 5.655937264322754 7.493721676474061 6.012008949732461 4.579883325356121 1.532858810557343 3.615600552002924 2.832000534917823 6.88669863480734 7.389845524279261 2.1553263194164765 1.7819447985337957 9.796786416570272 6.824244962778831 6.568151205386896 4.23640878096799 3.7987361964335418 1.9620620883549582 2.1678325676045036 1.1339439765824877 1.2205624410446527 </DataArray>
<DataArray Name="forces" NumberOfComponents="3" type="Float32" format="ascii">-0.055502994378660256 0.044676758553592745 -0.008461271132452871 -0.5681959136537731 0.48118526985088095 -0.013303291829103522 0.0 0.0 0.0 0.021252649082412492 0.03397586482785123 -0.35489530152613297 0.38118329228863573 -0.45808828636148885 0.260229144020085 0.0 0.0 0.0 0.16575997228272488 -0.05707284831724332 0.10796944933515147 -1.9986913933123958 0.4543357819721465 0.27787463083462244 -0.3854270628210614 -1.5226027851443067 0.11207449105998356 0.3854270628210614 1.5226027851443067 -0.11207449105998356 0.03999497458014767 0.045306199751770276 -0.07087228507752888 0.0 0.0 0.0 0.04170089184816572 -0.08989051111334936 0.10236535513307785 0.0 0.0 0.0 -0.16984692022925169 -0.07472145837074505 0.0410558954479885 -0.04170089184816572 0.08989051111334936 -0.10236535513307785 1.9986913933123958 -0.4543357819721465 -0.27787463083462244 0.0 0.0 0.0 0.17506520551619068 0.023963332269045103 -0.0448426407318275 0.01028973451157359 -0.039224832203663074 0.08312030149382074 </DataArray>
</PointData>
<CellData/>
</Piece>
</UnstructuredGrid>
</VTKFile>
