<?xml version="1.0" ?>
<VTKFile type="UnstructuredGrid" version="0.1" byte_order="LittleEndian">
<UnstructuredGrid>
<Piece NumberOfPoints="20" NumberOfCells="0">
<Points>
<DataArray type="Float32" format="ascii" NumberOfComponents="3">4.554342598914528 1.3248937887935508 1.6874978086008015 1.8802365426563767 8.149237858692974 7.8689613972736385 7.90702009720107 3.9077354384139196 8.434199311909317 9.693112102890991 9.374589669197565 9.36804799299767 0.008855405402867313 9.405804643033767 8.217483750768821 3.304101709206103 8.28556818658346 1.257009159422157 7.889392008879317 9.464028170582825 8.612439172933179 9.34998326857489 1.687778018228853 2.2993532669124392 6.906853434320252 9.31380917473696 4.068211116626389 5.285018229964829 7.456278531639832 3.1158290039539445 0.5881850075907868 9.971993137504613 3.3195703798204543 0.24400771617522568 4.31654622749959 8.371673475508544 3.8525877749596686 3.666684563681751 5.8987480464534885 4.692471134491765 4.3875842595460925 7.419153572870856 6.011165902436882 4.12643233895312 1.41990806321465 3.113146287490907 4.064308077435627 7.126977790183228 7.285277773479947 2.4559710011804454 1.5790494433215787 9.649768803492648 6.509649656405232 6.275614296072214 4.691516058342621 3.978883429389448 2.2118848499803665 1.7269905581617062 1.2368973582377376 1.3288999926495781 </DataArray>
</Points>
<Cells>
<DataArray type="Int32" Name="connectivity" format="ascii">0</DataArray>
<DataArray type="Int32" Name="offsets" format="ascii">0</DataArray>
<DataArray type="UInt8" Name="types" format="ascii">1</DataArray>
</Cells>
<PointData>
<DataArray Name="Points" NumberOfComponents="3" type="Float32" format="ascii">4.554342598914528 1.3248937887935508 1.6874978086008015 1.8802365426563767 8.149237858692974 7.8689613972736385 7.90702009720107 3.9077354384139196 8.434199311909317 9.693112102890991 9.374589669197565 9.36804799299767 0.008855405402867313 9.405804643033767 8.217483750768821 3.304101709206103 8.28556818658346 1.257009159422157 7.889392008879317 9.464028170582825 8.612439172933179 9.34998326857489 1.687778018228853 2.2993532669124392 6.906853434320252 9.31380917473696 4.068211116626389 5.285018229964829 7.456278531639832 3.1158290039539445 0.5881850075907868 9.971993137504613 3.3195703798204543 0.24400771617522568 4.31654622749959 8.371673475508544 3.8525877749596686 3.666684563681751 5.8987480464534885 4.692471134491765 4.3875842595460925 7.419153572870856 6.011165902436882 4.12643233895312 1.41990806321465 3.113146287490907 4.064308077435627 7.126977790183228 7.285277773479947 2.4559710011804454 1.5790494433215787 9.649768803492648 6.509649656405232 6.275614296072214 4.691516058342621 3.978883429389448 2.2118848499803665 1.7269905581617062 1.2368973582377376 1.3288999926495781 </DataArray>
<DataArray Name="forces" NumberOfComponents="3" type="Float32" format="ascii">0.0 0.0 0.0 -0.060438543535371314 0.040582361758728425 0.011255955836812074 0.055101101134213584 0.009638872046765546 -0.0014742236574332539 0.3734146595777951 0.0656493870985694 -2.1471177113931663 -0.6130313415091883 -0.09370853227740905 2.0746235930059678 0.0 0.0 0.0 0.30005522546676433 -0.012523216579888778 0.0612381625503862 -0.027060811151256796 -0.02203820186321167 0.005607354314152321 0.0 0.0 0.0 0.0 0.0 0.0 -0.031674150285102315 0.04389109339497401 -0.026097936337389382 -0.055101101134213584 -0.009638872046765546 0.0014742236574332539 -0.4799901919762289 0.42983343566093796 1.2242664647035832 -0.7777173055053073 -0.2395952741017916 -0.3437958623342161 -0.7509626523486302 -0.19344938409158585 0.5064729472927164 1.257707497481536 -0.19023816155914636 -0.8804706023693673 -0.018210579372022716 0.07902879237342349 0.01087979364929686 0.0 0.0 0.0 0.827908193157012 0.09256770018640001 -0.49686215891877616 0.0 0.0 0.0 </DataArray>
</PointData>
<CellData/>
</Piece>
</UnstructuredGrid>
</VTKFile>
