<?xml version="1.0" ?>
<VTKFile type="UnstructuredGrid" version="0.1" byte_order="LittleEndian">
<UnstructuredGrid>
<Piece NumberOfPoints="20" NumberOfCells="0">
<Points>
<DataArray type="Float32" format="ascii" NumberOfComponents="3">4.499244403646438 1.3922066381518565 1.7607076641255635 1.7926104028413967 7.951402487604876 8.210524783329657 8.179053268075526 4.145020754303504 7.697810735577656 9.637155748338479 9.08726079162843 9.797129172704532 0.40569720237394136 9.046646253126747 8.272402884724707 3.0500233654595474 8.581178767399967 1.510358471008905 8.156735733730109 9.509978682887374 8.560173041474929 8.73525403165414 1.84411806215181 1.786551544484911 6.420978688094012 9.270474308855851 3.8919989810433755 5.764688750581606 7.781304699168372 3.7374496756984947 1.0676639387299773 0.039788180937278636 3.000356387639346 0.4657575900203368 5.030014863295896 9.500606783317927 3.2135759260732697 4.025195568999915 5.518230681448117 5.305650958007201 5.348489648879545 7.4756651709391955 6.012140958549734 4.470079541785654 1.5053361142052348 3.4936711532862623 3.1304597456602523 6.945821701988462 7.36365755712787 2.228431557686075 1.732717610784286 9.761145783096909 6.747979433960989 6.497233166765155 4.346387019315539 3.842321096089994 2.0227657115975126 2.0609738743698967 1.1589248854804803 1.2467874206737797 </DataArray>
</Points>
<Cells>
<DataArray type="Int32" Name="connectivity" format="ascii">0</DataArray>
<DataArray type="Int32" Name="offsets" format="ascii">0</DataArray>
<DataArray type="UInt8" Name="types" format="ascii">1</DataArray>
</Cells>
<PointData>
<DataArray Name="Points" NumberOfComponents="3" type="Float32" format="ascii">4.499244403646438 1.3922066381518565 1.7607076641255635 1.7926104028413967 7.951402487604876 8.210524783329657 8.179053268075526 4.145020754303504 7.697810735577656 9.637155748338479 9.08726079162843 9.797129172704532 0.40569720237394136 9.046646253126747 8.272402884724707 3.0500233654595474 8.581178767399967 1.510358471008905 8.156735733730109 9.509978682887374 8.560173041474929 8.73525403165414 1.84411806215181 1.786551544484911 6.420978688094012 9.270474308855851 3.8919989810433755 5.764688750581606 7.781304699168372 3.7374496756984947 1.0676639387299773 0.039788180937278636 3.000356387639346 0.4657575900203368 5.030014863295896 9.500606783317927 3.2135759260732697 4.025195568999915 5.518230681448117 5.305650958007201 5.348489648879545 7.4756651709391955 6.012140958549734 4.470079541785654 1.5053361142052348 3.4936711532862623 3.1304597456602523 6.945821701988462 7.36365755712787 2.228431557686075 1.732717610784286 9.761145783096909 6.747979433960989 6.497233166765155 4.346387019315539 3.842321096089994 2.0227657115975126 2.0609738743698967 1.1589248854804803 1.2467874206737797 </DataArray>
<DataArray Name="forces" NumberOfComponents="3" type="Float32" format="ascii">-0.002634639247649115 0.04223000243247982 0.004516814284465868 -0.32539747174262323 0.2569660106505346 0.014517835538227436 0.0 0.0 0.0 0.08585934641660647 0.0299813730085055 -0.5885905865383817 0.026425636098512853 -0.23124567648023348 0.45841187736764416 0.0 0.0 0.0 0.21311248922750392 -0.05570170717880661 0.1156608736325101 -1.4708500233804138 0.4121237728372098 -0.057729546636208655 -0.2765204924012049 -0.6274451125984362 -0.06511763714710737 0.2765204924012049 0.6274451125984362 0.06511763714710737 0.029494341498065846 0.033230514427052785 -0.05206870493928281 0.0 0.0 0.0 0.08536379380111943 -0.2726859900113959 0.43508269213408 0.0 0.0 0.0 -0.2725112193470882 -0.10269897339735817 0.08464957950300128 -0.08536379380111943 0.2726859900113959 -0.43508269213408 1.4708500233804138 -0.4121237728372098 0.057729546636208655 0.0 0.0 0.0 0.27514585859473734 0.060468970964878355 -0.08916639378746714 -0.029494341498065846 -0.033230514427052785 0.05206870493928281 </DataArray>
</PointData>
<CellData/>
</Piece>
</UnstructuredGrid>
</VTKFile>
