<?xml version="1.0" ?>
<VTKFile type="UnstructuredGrid" version="0.1" byte_order="LittleEndian">
<UnstructuredGrid>
<Piece NumberOfPoints="20" NumberOfCells="0">
<Points>
<DataArray type="Float32" format="ascii" NumberOfComponents="3">4.829666768905031 0.44565513747416685 1.0387299001282104 2.8192297684132237 0.42572749293643497 4.152265773200085 5.907708098430235 3.1517515656118347 8.707040909820888 8.641655838597742 5.234646496602829 8.713770503069275 6.006989766107073 3.220105578566795 4.027923848407535 6.078839199646857 4.822555027764976 8.568800441036384 4.949272593564253 8.956651728390536 9.194453884567288 6.164172086409131 9.885405852743055 8.004116672901379 6.546778730293247 6.854885974012705 8.835535170944084 9.997656330029288 4.010906465917269 6.063111351828795 1.040036656204225 2.240521757143604 4.010866820060396 7.778308625674775 6.3411827356875445 5.827392455273912 0.9219064056591909 9.703961285003237 0.30922285523069337 7.9226829204504226 3.626545496521217 6.583423238532838 6.138694548107806 0.4542231955063861 0.2756010740634608 0.736867190333359 1.4387918542421827 8.4376596415636 4.888698429973253 3.704193839952002 8.046980362275415 8.38256512275487 3.8761325922017895 3.7905772082099904 8.678864732295725 5.389878004534385 4.214669597913723 7.978660751499136 2.082110968991296 2.2817474748737343 </DataArray>
</Points>
<Cells>
<DataArray type="Int32" Name="connectivity" format="ascii">0</DataArray>
<DataArray type="Int32" Name="offsets" format="ascii">0</DataArray>
<DataArray type="UInt8" Name="types" format="ascii">1</DataArray>
</Cells>
<PointData>
<DataArray Name="Points" NumberOfComponents="3" type="Float32" format="ascii">4.829666768905031 0.44565513747416685 1.0387299001282104 2.8192297684132237 0.42572749293643497 4.152265773200085 5.907708098430235 3.1517515656118347 8.707040909820888 8.641655838597742 5.234646496602829 8.713770503069275 6.006989766107073 3.220105578566795 4.027923848407535 6.078839199646857 4.822555027764976 8.568800441036384 4.949272593564253 8.956651728390536 9.194453884567288 6.164172086409131 9.885405852743055 8.004116672901379 6.546778730293247 6.854885974012705 8.835535170944084 9.997656330029288 4.010906465917269 6.063111351828795 1.040036656204225 2.240521757143604 4.010866820060396 7.778308625674775 6.3411827356875445 5.827392455273912 0.9219064056591909 9.703961285003237 0.30922285523069337 7.9226829204504226 3.626545496521217 6.583423238532838 6.138694548107806 0.4542231955063861 0.2756010740634608 0.736867190333359 1.4387918542421827 8.4376596415636 4.888698429973253 3.704193839952002 8.046980362275415 8.38256512275487 3.8761325922017895 3.7905772082099904 8.678864732295725 5.389878004534385 4.214669597913723 7.978660751499136 2.082110968991296 2.2817474748737343 </DataArray>
<DataArray Name="forces" NumberOfComponents="3" type="Float32" format="ascii">0.9465306155739874 -0.02892451596824519 -0.5936353308502311 0.0 0.0 0.0 -1.5161768231162287 1.415810446831745 -1.0659731995389559 0.0 0.0 0.0 0.04002516379145139 0.011053149124012533 -0.0039989630817953625 -0.3813587172484094 -0.7690217943428972 -0.09161384337025504 0.1899078434246945 0.20799476397960773 -0.04775202532526438 -0.1417197337528723 -0.09291756269308085 0.19775006193172434 -0.028730815824491548 -0.12478220429549974 -0.016377129729534947 -0.0981015458112344 -0.01817199443288772 0.024599544338250668 0.0 0.0 0.0 0.06069007524835726 -0.06411011517587151 -0.1086842572587566 0.0 0.0 0.0 0.0981015458112344 0.01817199443288772 -0.024599544338250668 -0.9947187252458096 -0.0861526853182817 0.4436372942437712 0.0 0.0 0.0 1.9262663561891298 -0.522006448193348 1.1739641726387458 0.09664460114542929 0.6934096280008987 0.17806165230792081 -0.20671280110030985 -0.681895698659721 -0.1003174584491032 0.009352960915071902 0.04154303671068123 0.034939026481734345 </DataArray>
</PointData>
<CellData/>
</Piece>
</UnstructuredGrid>
</VTKFile>
