<?xml version="1.0" ?>
<VTKFile type="UnstructuredGrid" version="0.1" byte_order="LittleEndian">
<UnstructuredGrid>
<Piece NumberOfPoints="20" NumberOfCells="0">
<Points>
<DataArray type="Float32" format="ascii" NumberOfComponents="3">2.1215534064762855 6.458493917748817 7.8471923604961775 3.452137486510625 0.8628206022186992 7.237287428427688 9.517862374546835 8.92274892905281 4.6782910055224605 4.208234713595052 7.433873421803889 5.978669929171432 1.3812333680541462 7.526230875141577 0.4008236269427134 9.082080540099234 6.130078217331142 1.7539582408251353 8.25079004767484 7.02957778030822 9.811082045640273 6.693798192305592 3.100494297916305 0.24067450757141584 9.669906878038312 3.4306051212378725 1.8129288244694437 0.6465122285243868 7.084529526053286 1.1172887636149078 9.832584141547049 9.442969554741591 4.100987018939366 1.478056540358135 8.478533608419507 7.198619343081242 9.458814459953379 4.505393333956397 5.200309799426976 8.587109752871834 4.443416100388989 7.709877604180892 7.807276200638752 7.529995988268189 2.3862397932425337 2.0730071164346877 2.045648562568813 4.957677026356651 3.4806883396391792 1.9740476006826528 7.067338207002475 5.738399212583556 9.381622508035397 7.062155161396597 5.31029095243158 8.759641808324794 5.156791327717533 0.6600953773476209 0.8474062901750687 4.557983869120786 </DataArray>
</Points>
<Cells>
<DataArray type="Int32" Name="connectivity" format="ascii">0</DataArray>
<DataArray type="Int32" Name="offsets" format="ascii">0</DataArray>
<DataArray type="UInt8" Name="types" format="ascii">1</DataArray>
</Cells>
<PointData>
<DataArray Name="Points" NumberOfComponents="3" type="Float32" format="ascii">2.1215534064762855 6.458493917748817 7.8471923604961775 3.452137486510625 0.8628206022186992 7.237287428427688 9.517862374546835 8.92274892905281 4.6782910055224605 4.208234713595052 7.433873421803889 5.978669929171432 1.3812333680541462 7.526230875141577 0.4008236269427134 9.082080540099234 6.130078217331142 1.7539582408251353 8.25079004767484 7.02957778030822 9.811082045640273 6.693798192305592 3.100494297916305 0.24067450757141584 9.669906878038312 3.4306051212378725 1.8129288244694437 0.6465122285243868 7.084529526053286 1.1172887636149078 9.832584141547049 9.442969554741591 4.100987018939366 1.478056540358135 8.478533608419507 7.198619343081242 9.458814459953379 4.505393333956397 5.200309799426976 8.587109752871834 4.443416100388989 7.709877604180892 7.807276200638752 7.529995988268189 2.3862397932425337 2.0730071164346877 2.045648562568813 4.957677026356651 3.4806883396391792 1.9740476006826528 7.067338207002475 5.738399212583556 9.381622508035397 7.062155161396597 5.31029095243158 8.759641808324794 5.156791327717533 0.6600953773476209 0.8474062901750687 4.557983869120786 </DataArray>
<DataArray Name="forces" NumberOfComponents="3" type="Float32" format="ascii">-0.026012534708117336 0.08165751122041681 -0.02621773160765751 0.0029154723180544687 0.11347302087643371 -0.01735437635818244 -147.12221701450466 -243.18490986470235 269.94414214074993 0.14324359732612907 0.17232136275277884 -0.10682653324653753 0.20587392446066277 0.12376776069703976 -0.20075846670255676 0.037138311496081544 0.26643076533371624 -0.07440339311856295 0.02541820148677417 -0.027503816460521035 0.059406933007305554 0.0 0.0 0.0 0.0 0.0 0.0 -0.3859559687262923 -0.23363484156633174 0.27404561744607275 147.43391614151852 243.71340354292795 -269.7998655368711 0.026012534708117336 -0.08165751122041681 0.02621773160765751 0.0 0.0 0.0 0.0 0.0 0.0 0.11752553128277379 -0.1290598680039032 -0.05829069063225858 -0.19493463773496475 -0.1653174199251251 -0.05514430849110275 -0.0029154723180544687 -0.11347302087643371 0.01735437635818244 -0.03211151957924507 -0.04665349229556876 -0.14291742006811697 -0.111132077746884 -0.1256678704572101 0.2497439533146545 -0.1167644892788823 -0.3631762583004739 -0.08913229538773965 </DataArray>
</PointData>
<CellData/>
</Piece>
</UnstructuredGrid>
</VTKFile>
