<?xml version="1.0" ?>
<VTKFile type="UnstructuredGrid" version="0.1" byte_order="LittleEndian">
<UnstructuredGrid>
<Piece NumberOfPoints="20" NumberOfCells="0">
<Points>
<DataArray type="Float32" format="ascii" NumberOfComponents="3">0.6777600882655952 4.795129685880276 6.248941362638234 5.723810858478424 9.597616078792441 8.453091924431966 8.67147163026639 9.000278960476845 5.7352027801118854 4.2787346928000725 8.180784793082193 5.009945230761478 9.743001613421898 8.050386096276853 7.163542530110666 9.421916738013277 7.167378986532777 1.75916515582451 3.3350687210297023 6.200443453716203 2.5637983046530195 6.5464403083371385 4.258807435575195 7.127437275004601 1.7353951926717528 1.928143241908637 1.1661397925769443 3.8604247553786784 7.157260401015255 9.72914676749352 3.511874909459528 0.7664108702304514 4.171941682677714 0.0464718744604826 8.885935665561917 6.8767986091650135 8.35392453982603 3.3677281695668375 1.8075749279074182 7.907242966199117 7.036194318723489 9.982922809037944 6.759626487459184 6.833527573036365 9.635399293610341 3.7270842399927817 1.4240962460801527 7.650999918287259 3.254250623399509 0.35869485381434946 8.528100730799878 6.51658739425362 2.1256117210852827 4.646917352553803 5.150464235903042 0.6952311147563774 4.319633556462012 4.027249202165395 8.69560429956409 9.703682060867967 </DataArray>
</Points>
<Cells>
<DataArray type="Int32" Name="connectivity" format="ascii">0</DataArray>
<DataArray type="Int32" Name="offsets" format="ascii">0</DataArray>
<DataArray type="UInt8" Name="types" format="ascii">1</DataArray>
</Cells>
<PointData>
<DataArray Name="Points" NumberOfComponents="3" type="Float32" format="ascii">0.6777600882655952 4.795129685880276 6.248941362638234 5.723810858478424 9.597616078792441 8.453091924431966 8.67147163026639 9.000278960476845 5.7352027801118854 4.2787346928000725 8.180784793082193 5.009945230761478 9.743001613421898 8.050386096276853 7.163542530110666 9.421916738013277 7.167378986532777 1.75916515582451 3.3350687210297023 6.200443453716203 2.5637983046530195 6.5464403083371385 4.258807435575195 7.127437275004601 1.7353951926717528 1.928143241908637 1.1661397925769443 3.8604247553786784 7.157260401015255 9.72914676749352 3.511874909459528 0.7664108702304514 4.171941682677714 0.0464718744604826 8.885935665561917 6.8767986091650135 8.35392453982603 3.3677281695668375 1.8075749279074182 7.907242966199117 7.036194318723489 9.982922809037944 6.759626487459184 6.833527573036365 9.635399293610341 3.7270842399927817 1.4240962460801527 7.650999918287259 3.254250623399509 0.35869485381434946 8.528100730799878 6.51658739425362 2.1256117210852827 4.646917352553803 5.150464235903042 0.6952311147563774 4.319633556462012 4.027249202165395 8.69560429956409 9.703682060867967 </DataArray>
<DataArray Name="forces" NumberOfComponents="3" type="Float32" format="ascii">0.0 0.0 0.0 -0.052621259466875674 -0.027977171180506497 0.03878882197486859 0.3822388563237952 -0.10341206740046935 0.3621793390397019 0.0 0.0 0.0 -25.375376722134185 -69.54190453703293 23.773665981458787 -0.040211312977274184 -0.0034826692276983674 -0.04715539296925646 0.0 0.0 0.0 0.0 0.0 0.0 0.0 0.0 0.0 0.10397535691127924 0.9587914660277473 -0.01587118681363212 0.6542163614931509 -0.02841893321695948 0.058966843448799953 24.99313786581039 69.6453166044334 -24.13584532049849 0.0 0.0 0.0 -2.1573659697775853 -0.3846050277883789 -0.6183193513158308 2.1975772827548594 0.38808769701607726 0.6654747442850872 -0.43856581479209966 -0.9881882617529978 0.8135344421276544 0.4744660707412582 0.9109495989607148 -0.7589370964172961 -0.12175070384681852 -0.1274774126511751 -0.029167965046390465 -0.5324656576463324 0.15589634586813458 -0.02979887840240949 -0.08725435339356209 -0.8535756320549579 -0.07751498087159468 </DataArray>
</PointData>
<CellData/>
</Piece>
</UnstructuredGrid>
</VTKFile>
