<?xml version="1.0" ?>
<VTKFile type="UnstructuredGrid" version="0.1" byte_order="LittleEndian">
<UnstructuredGrid>
<Piece NumberOfPoints="20" NumberOfCells="0">
<Points>
<DataArray type="Float32" format="ascii" NumberOfComponents="3">0.5224655602946464 4.616231075188792 6.077034239632692 5.970380711222541 9.451646227309148 8.585160689571014 8.58057078117506 9.007170625917805 5.851151009842771 4.286447334099983 8.26135194749481 4.905651638951054 9.526062886435048 7.990359449722572 6.86319467042476 9.45804852840873 7.279113410219308 1.7595495467683886 2.808294771595535 6.112362040271186 2.8608623270195355 6.530590768491694 4.383393441660573 6.7925832703389855 1.9575552730247683 1.7665412374458995 1.0965723676350185 4.204254399252315 7.163009252357851 9.587282819161857 3.910895554762364 0.9106974966235456 4.177156166679715 9.934327887681997 9.05037420534013 6.786074449150751 8.235084635626286 3.245363021071449 1.4426586771916519 7.829098233699011 7.315658164334494 0.2282094573678972 6.6504205686170295 6.756790777964579 9.337854116635825 3.90435776658027 1.352924071136431 7.945926039044948 3.228330141905969 0.19896134158584206 8.678773628532278 6.599018018721372 2.419429170156557 4.386170629223957 5.133008617660872 0.9045721484254133 4.2305913025325275 4.3881342152577085 8.461623085542795 9.182563474874739 </DataArray>
</Points>
<Cells>
<DataArray type="Int32" Name="connectivity" format="ascii">0</DataArray>
<DataArray type="Int32" Name="offsets" format="ascii">0</DataArray>
<DataArray type="UInt8" Name="types" format="ascii">1</DataArray>
</Cells>
<PointData>
<DataArray Name="Points" NumberOfComponents="3" type="Float32" format="ascii">0.5224655602946464 4.616231075188792 6.077034239632692 5.970380711222541 9.451646227309148 8.585160689571014 8.58057078117506 9.007170625917805 5.851151009842771 4.286447334099983 8.26135194749481 4.905651638951054 9.526062886435048 7.990359449722572 6.86319467042476 9.45804852840873 7.279113410219308 1.7595495467683886 2.808294771595535 6.112362040271186 2.8608623270195355 6.530590768491694 4.383393441660573 6.7925832703389855 1.9575552730247683 1.7665412374458995 1.0965723676350185 4.204254399252315 7.163009252357851 9.587282819161857 3.910895554762364 0.9106974966235456 4.177156166679715 9.934327887681997 9.05037420534013 6.786074449150751 8.235084635626286 3.245363021071449 1.4426586771916519 7.829098233699011 7.315658164334494 0.2282094573678972 6.6504205686170295 6.756790777964579 9.337854116635825 3.90435776658027 1.352924071136431 7.945926039044948 3.228330141905969 0.19896134158584206 8.678773628532278 6.599018018721372 2.419429170156557 4.386170629223957 5.133008617660872 0.9045721484254133 4.2305913025325275 4.3881342152577085 8.461623085542795 9.182563474874739 </DataArray>
<DataArray Name="forces" NumberOfComponents="3" type="Float32" format="ascii">0.0 0.0 0.0 -0.1683858811070737 -0.10536027064548217 0.06357681602438736 0.8184260155663073 -0.2790114450614244 0.669863809629069 0.0 0.0 0.0 0.00820496191297937 1.0330791013736915 -0.3485481131824545 -0.061559763726299066 0.001381065116641521 -0.05787097027715189 0.0 0.0 0.0 0.0 0.0 0.0 0.0 0.0 0.0 0.28464138527355504 1.7274330127596769 -0.544376855941017 2.3581595114196277 -0.011819322248241317 0.10310713278561466 -0.8266309774792867 -0.754067656312267 -0.3213156964466145 0.0 0.0 0.0 -0.5750320112731249 -0.3032196355910958 -0.4230008605277735 0.5974696334687832 0.308335323167139 0.48486100583491193 -0.46639783268367135 -0.7961297680984958 0.5055984621767737 0.5263950625168402 0.7062564135891092 -0.4795371679520736 -0.08629338372880244 -0.08916869030713785 -0.009157831135830635 -2.271866127690825 0.10098801255537918 -0.09394930164978403 -0.13713059246900955 -1.5386961402974928 0.450749570661943 </DataArray>
</PointData>
<CellData/>
</Piece>
</UnstructuredGrid>
</VTKFile>
