<?xml version="1.0" ?>
<VTKFile type="UnstructuredGrid" version="0.1" byte_order="LittleEndian">
<UnstructuredGrid>
<Piece NumberOfPoints="60" NumberOfCells="0">
<Points>
<DataArray type="Float32" format="ascii" NumberOfComponents="3">0.820968906974593 8.124004542800753 4.63014305606673 8.003330145553976 4.507712078896654 8.762961632174362 3.7612537363343397 9.683262270612781 4.758872396297558 8.942389478190988 4.10034989469231 2.8767780294985754 4.792495102164113 1.779308311015468 6.29204304930307 2.779901914514929 6.180860862121211 6.625483713324252 8.331125575486404 3.4494917547715866 2.57355220628151 3.9963546330644566 1.971749403894933 1.7408471574775815 9.305089626701323 4.6898385195018255 3.75402960402371 2.2154433227269057 0.8197886436196928 6.963620597964523 0.3971222864854288 1.3209883791786883 3.9997023649026358 9.28488334601992 5.667993886640359 0.46200667679576674 3.3193810750255626 0.5464862793567781 8.790426910237876 7.0061699918864475 6.427039043327793 3.55611398859709 6.3365827525644765 8.193086143956462 9.364132395749818 7.810153035454445 3.153700332947933 9.176369568248774 3.0844592067855827 7.04363373719345 0.9777173759105571 9.74773257443309 8.5997764102189 2.542274420984353 3.795468946435506 9.439406547124369 1.685801691008359 6.882187957239557 5.685173522388556 7.271081396971996 2.775898021160364 9.167415377536372 3.649349515889542 6.769614132295704 5.682970943388017 3.109851052242795 5.862412144264274 8.916799815030146 0.5146772510549834 7.614964692534906 9.812321162736731 2.784392855605093 6.108626410824777 7.188341780454657 1.2936257487533205 8.651592021100786 0.9769011386153453 7.850270346266692 7.690764402966144 7.35406169664184 1.2400182752653233 4.116636893987249 0.35927687121259555 7.220114747822831 9.465191615422452 1.2724063451056435 2.797837876072902 4.020630292936729 5.242236271470417 9.092985586224897 1.1517893063579718 8.189269997637444 4.8765558221324765 9.82824611327415 5.021585869398034 3.5449801258901 6.846425329065417 2.921977402780835 6.272383241406442 3.567736230647492 6.87668757950052 5.876112209741407 6.13360329403936 1.9510012284093707 1.4203602325800817 4.749353975323062 0.16754261493672615 1.533580245020386 8.475155429214295 7.367665283952713 6.658032506301826 4.265086137636779 6.55752272929044 2.2676204738945875 0.2145646237869358 7.94599381040438 7.497497768055265 3.8967637999598344 7.083956732546883 7.752904496945816 1.4098871123570875 4.9158620596986005 7.711754363994418 1.8844021943656204 0.4731995826589868 3.156931596031529 7.439065706995804 1.8464903703692481 0.6516178361105963 8.95349355821232 8.880345261882542 5.979858878159166 0.531727844175884 1.6955275814920074 1.8071059041555695 9.275768534191057 6.837516513220584 0.7836504303711201 1.4315063806785784 1.0452925131954327 1.5325087631344514 2.198959646018214 1.6790620606149056 4.1052010062742275 5.155693082351491 1.2228141576597467 3.5954074444287776 0.1218590172406649 5.7769790775641425 8.812469909030527 2.8748989333178203 2.3907847382586604 9.083403583352046 8.369873566221088 9.503301389549662 4.989003679503388 1.767786110672729 0.8314764196524534 0.9738450169251243 5.713870683512635 3.711912294909041 4.779878248692826 7.924892998242758 1.153148606160875 3.4527133472289995 2.74488712758821 2.8816690339116664 9.983276412752671 8.699728400450121 8.377604076147 3.497446863773919 7.366572990249094 1.6597993835963125 8.35476106030881 0.6749269499426283 5.169187726112651 5.240740146829629 4.252500276653986 7.433778665339636 1.3644925869609783 </DataArray>
</Points>
<Cells>
<DataArray type="Int32" Name="connectivity" format="ascii">0</DataArray>
<DataArray type="Int32" Name="offsets" format="ascii">0</DataArray>
<DataArray type="UInt8" Name="types" format="ascii">1</DataArray>
</Cells>
<PointData>
<DataArray Name="Points" NumberOfComponents="3" type="Float32" format="ascii">0.820968906974593 8.124004542800753 4.63014305606673 8.003330145553976 4.507712078896654 8.762961632174362 3.7612537363343397 9.683262270612781 4.758872396297558 8.942389478190988 4.10034989469231 2.8767780294985754 4.792495102164113 1.779308311015468 6.29204304930307 2.779901914514929 6.180860862121211 6.625483713324252 8.331125575486404 3.4494917547715866 2.57355220628151 3.9963546330644566 1.971749403894933 1.7408471574775815 9.305089626701323 4.6898385195018255 3.75402960402371 2.2154433227269057 0.8197886436196928 6.963620597964523 0.3971222864854288 1.3209883791786883 3.9997023649026358 9.28488334601992 5.667993886640359 0.46200667679576674 3.3193810750255626 0.5464862793567781 8.790426910237876 7.0061699918864475 6.427039043327793 3.55611398859709 6.3365827525644765 8.193086143956462 9.364132395749818 7.810153035454445 3.153700332947933 9.176369568248774 3.0844592067855827 7.04363373719345 0.9777173759105571 9.74773257443309 8.5997764102189 2.542274420984353 3.795468946435506 9.439406547124369 1.685801691008359 6.882187957239557 5.685173522388556 7.271081396971996 2.775898021160364 9.167415377536372 3.649349515889542 6.769614132295704 5.682970943388017 3.109851052242795 5.862412144264274 8.916799815030146 0.5146772510549834 7.614964692534906 9.812321162736731 2.784392855605093 6.108626410824777 7.188341780454657 1.2936257487533205 8.651592021100786 0.9769011386153453 7.850270346266692 7.690764402966144 7.35406169664184 1.2400182752653233 4.116636893987249 0.35927687121259555 7.220114747822831 9.465191615422452 1.2724063451056435 2.797837876072902 4.020630292936729 5.242236271470417 9.092985586224897 1.1517893063579718 8.189269997637444 4.8765558221324765 9.82824611327415 5.021585869398034 3.5449801258901 6.846425329065417 2.921977402780835 6.272383241406442 3.567736230647492 6.87668757950052 5.876112209741407 6.13360329403936 1.9510012284093707 1.4203602325800817 4.749353975323062 0.16754261493672615 1.533580245020386 8.475155429214295 7.367665283952713 6.658032506301826 4.265086137636779 6.55752272929044 2.2676204738945875 0.2145646237869358 7.94599381040438 7.497497768055265 3.8967637999598344 7.083956732546883 7.752904496945816 1.4098871123570875 4.9158620596986005 7.711754363994418 1.8844021943656204 0.4731995826589868 3.156931596031529 7.439065706995804 1.8464903703692481 0.6516178361105963 8.95349355821232 8.880345261882542 5.979858878159166 0.531727844175884 1.6955275814920074 1.8071059041555695 9.275768534191057 6.837516513220584 0.7836504303711201 1.4315063806785784 1.0452925131954327 1.5325087631344514 2.198959646018214 1.6790620606149056 4.1052010062742275 5.155693082351491 1.2228141576597467 3.5954074444287776 0.1218590172406649 5.7769790775641425 8.812469909030527 2.8748989333178203 2.3907847382586604 9.083403583352046 8.369873566221088 9.503301389549662 4.989003679503388 1.767786110672729 0.8314764196524534 0.9738450169251243 5.713870683512635 3.711912294909041 4.779878248692826 7.924892998242758 1.153148606160875 3.4527133472289995 2.74488712758821 2.8816690339116664 9.983276412752671 8.699728400450121 8.377604076147 3.497446863773919 7.366572990249094 1.6597993835963125 8.35476106030881 0.6749269499426283 5.169187726112651 5.240740146829629 4.252500276653986 7.433778665339636 1.3644925869609783 </DataArray>
<DataArray Name="forces" NumberOfComponents="3" type="Float32" format="ascii">-0.01620382962469248 0.012000307663976398 -0.01708495961520679 -0.2218145810823313 -1.371740233903303 0.398569612515827 -0.526880564971897 -0.2698439370936747 -0.6134841953474508 44.06031917237457 46.83452116839027 21.88175879896649 -0.09332516208880487 -0.2273556631054635 0.15575683978696278 1.5206062404561436 1.3271169748613156 -1.0856158064053028 -43.19675570401869 -45.98435320273437 -21.366413736627585 0.140995062107178 -0.16024347042534706 -0.02289269680794718 -9254.805220314141 -5868.687730718462 3698.413948939941 0.201621511566199 -0.04904712769211138 0.08684623946038211 -0.17978709202177284 -0.06590424707071232 -0.9547018137565583 0.09697925057583877 2.2263036306772497 0.35765495632109534 0.08458961217968505 0.1709413301196805 -0.3725558378630963 36.90797817398297 116.09118133892474 69.62694876092753 -0.4748437908012548 0.6875643947929146 1.2033043909024412 0.07381183581945046 0.9767856568521871 -0.5079251775921035 2.2552906447385865 0.5976050528220624 0.9057685246246027 -1.0579024430610597 -0.22565815090378039 0.980433254241768 1.798459451870138 1.2571722179422213 -0.26114046335276575 0.03944944074773428 -0.02058541866501672 0.035517324555393165 0.19308607957226176 0.7440639244330269 0.4064713527925736 -36.909780276564106 -116.08707712853939 -69.63190047818495 0.3738477039763222 -0.8142509826924808 -0.9489966000062503 0.3435030328668902 0.7462111891040585 0.5347531631208888 0.4565235265838965 0.3171606212760755 -0.12695735048485235 -0.8080234995965421 0.42940829398622543 0.31722514802297735 -0.36476147920657737 -0.22111950019471766 -0.09967009523005459 -0.22125687975947925 0.31844359371880343 0.1618032260812384 0.8770160717212864 0.27935449591657435 0.33097331267387814 -0.0020663059302657998 0.030723061734895807 -0.02235485509653477 0.03138845217875538 0.018904196006708594 -0.023717689650880402 9254.115402226598 5867.875047237219 -3698.649556684213 -0.09272268658668495 0.03883414383639586 -0.09461218155235226 -1.3434648673234029 -1.195806504493234 1.520646175436735 0.8077229918073195 -0.10615631797393307 -0.5202420373996423 -1.7260822022451991 -1.277148072566469 0.22962201566526896 0.2389771700794368 0.43347640817093674 -0.11863056344790923 -0.17555411891069594 1.7516391435899101 -1.9548511738832042 -0.15911894968719573 -0.01224728685189519 -0.1040964542479327 -0.22221589062719674 -0.20556086121180422 -0.3752980397250968 -0.10664967104348451 0.14634466086940362 0.09404791051726431 0.21065917007063317 0.4401252777872139 0.3921855811721381 -0.8806014361799817 0.16568355557887268 0.3936430946986435 -1.055061206517066 0.6039606500242024 -1.4316080890854794 0.3725117421458026 -1.1161186556797444 0.31293998165568604 -0.3943768390327471 -2.0812477908004188 -0.5005711986585386 -2979.967839488665 1894.744906487246 4950.0711164837585 -0.45948045283567596 -0.7293561784510753 -0.5458048709430775 -0.029530037930090257 -0.0113849048271539 -0.037153982437366395 0.02063588748359224 -0.11411540005649454 0.1263672262695514 1.5958957874002713 -6.043772057186527 -10.74150123591363 0.9991611288629566 -1.1475883834260228 1.4273144323161817 2978.944981389078 -1894.0798313939665 -4949.209908385708 0.07274203876503754 -0.05073616074127682 0.09586103104455122 0.3138757483944864 -0.8681572987736142 -0.6356731098782806 -1.5351013141692418 5.830025230169234 10.729276536479182 0.9202870670578089 0.5062070356657253 -0.8535751591820363 0.9089318589046531 -0.08884704854288263 -0.1004825871835606 -0.17180511100037332 -0.04241380868750832 -0.2789778728554484 -1.7790232743429415 -2.2463133736609744 1.0172010683873276 </DataArray>
</PointData>
<CellData/>
</Piece>
</UnstructuredGrid>
</VTKFile>
