<?xml version="1.0" ?>
<VTKFile type="UnstructuredGrid" version="0.1" byte_order="LittleEndian">
<UnstructuredGrid>
<Piece NumberOfPoints="20" NumberOfCells="0">
<Points>
<DataArray type="Float32" format="ascii" NumberOfComponents="3">9.414528936551395 3.3403876475150525 4.850209352989401 7.7235612862316625 8.40459269737853 9.527882047783194 7.9921128706320514 9.032491268208666 6.694573653313953 4.34147807202367 8.836209481682125 4.161502767655056 7.949217812079632 7.576980677480269 4.730428175517618 9.713010318609784 8.076867355855718 1.7605828466934494 9.049566483893198 5.483289800735664 4.980699766796096 6.4176055977532815 5.272290832753032 4.403134762849909 3.54351030674135 0.6123406568601611 0.5986618678759447 6.68094015606069 7.22709682391941 8.529007554860284 4.3769402043265035 1.7290765688320855 4.379062147166722 9.102641096878513 0.232409796958546 6.112606808511667 7.3871458597146 2.3722711507259726 8.838931915327908 7.26536614670713 9.305664664221478 1.973051520549913 5.861581936691836 6.236992089133976 7.230720505930256 5.157566444284243 0.828983154819966 0.05901143584976943 3.055030600661407 9.075365266171083 9.74689325855227 7.184178153876316 4.511385208788933 2.5266639636048 7.392386381207333 2.6140058909725985 3.429909811067716 6.964005931245928 6.751556863803279 5.500528311180863 </DataArray>
</Points>
<Cells>
<DataArray type="Int32" Name="connectivity" format="ascii">0</DataArray>
<DataArray type="Int32" Name="offsets" format="ascii">0</DataArray>
<DataArray type="UInt8" Name="types" format="ascii">1</DataArray>
</Cells>
<PointData>
<DataArray Name="Points" NumberOfComponents="3" type="Float32" format="ascii">9.414528936551395 3.3403876475150525 4.850209352989401 7.7235612862316625 8.40459269737853 9.527882047783194 7.9921128706320514 9.032491268208666 6.694573653313953 4.34147807202367 8.836209481682125 4.161502767655056 7.949217812079632 7.576980677480269 4.730428175517618 9.713010318609784 8.076867355855718 1.7605828466934494 9.049566483893198 5.483289800735664 4.980699766796096 6.4176055977532815 5.272290832753032 4.403134762849909 3.54351030674135 0.6123406568601611 0.5986618678759447 6.68094015606069 7.22709682391941 8.529007554860284 4.3769402043265035 1.7290765688320855 4.379062147166722 9.102641096878513 0.232409796958546 6.112606808511667 7.3871458597146 2.3722711507259726 8.838931915327908 7.26536614670713 9.305664664221478 1.973051520549913 5.861581936691836 6.236992089133976 7.230720505930256 5.157566444284243 0.828983154819966 0.05901143584976943 3.055030600661407 9.075365266171083 9.74689325855227 7.184178153876316 4.511385208788933 2.5266639636048 7.392386381207333 2.6140058909725985 3.429909811067716 6.964005931245928 6.751556863803279 5.500528311180863 </DataArray>
<DataArray Name="forces" NumberOfComponents="3" type="Float32" format="ascii">-0.016994096460723824 0.09978200670365837 0.006076150199230485 -0.16409235181751858 -0.18531953893898692 -0.1572073114299665 0.29942134598163245 0.29729266928759795 -0.19388929789040335 0.0 0.0 0.0 -0.7399811516152005 -0.6634345777389621 0.6413330623832648 0.0 0.0 0.0 -0.041496308855127714 -0.031196045860579797 -0.003654531870623149 0.10520003372701646 0.14658420386424825 0.04480403839687527 0.38511124649837125 -0.22106599910598723 -0.31692761652466783 0.01407860643911707 0.0040443456584910165 -0.08049202224644253 0.0 0.0 0.0 -0.3002197943844871 -0.3243855360588347 0.15732870390487103 0.0 0.0 0.0 0.0 0.0 0.0 0.21459239314272716 0.21141776773411106 0.13634679340037797 -0.4756611274704677 -0.06384438089895171 0.15903457566739929 0.09054988097209644 0.28491038000493896 0.15789304085726857 -0.025006153141318627 -0.07548418964961681 0.14503631103901904 -0.012352457487030536 0.11256662457836401 -0.053587248084026214 0.6668499344709138 0.40813227042050965 -0.6420946478021768 </DataArray>
</PointData>
<CellData/>
</Piece>
</UnstructuredGrid>
</VTKFile>
