<?xml version="1.0" ?>
<VTKFile type="UnstructuredGrid" version="0.1" byte_order="LittleEndian">
<UnstructuredGrid>
<Piece NumberOfPoints="20" NumberOfCells="0">
<Points>
<DataArray type="Float32" format="ascii" NumberOfComponents="3">8.867316952090855 2.7141007774071557 4.243380232249912 8.5837475666528 7.885335563626745 9.990523805341981 7.723793061824998 9.044905251157816 7.1065147905474575 4.368576541455789 9.119283267456183 3.7950658234562686 7.1632127594565596 7.371010106327496 3.6919475739090752 9.837778172418194 8.469912129875649 1.7607809296342203 7.195984561015165 5.17559692278062 6.022394105566598 6.365498312684932 5.7124908758485295 3.2273444830157816 4.331352655975221 0.0408656217979442 0.34940570659792763 7.908754749284577 7.25109063375544 7.988764066413173 4.383072726530518 2.111272571330044 4.495126640947256 8.675116639162527 0.8010037291393715 5.781065155048262 6.969600250364149 1.9423395479043366 7.556793737137493 6.988243347060578 0.2853828661037276 2.8314618579277013 5.468518825487119 6.000723272063023 6.202366713738821 5.765024507117432 0.5678737960379123 1.1015262062375792 2.9725317108211557 8.528262014280365 0.27500824408735647 7.4709610139647795 5.538892669467878 1.6139122514266018 8.730561361212876 3.4794759100759216 3.020301220978226 8.238159307405436 5.910171968547394 3.6912708008539705 </DataArray>
</Points>
<Cells>
<DataArray type="Int32" Name="connectivity" format="ascii">0</DataArray>
<DataArray type="Int32" Name="offsets" format="ascii">0</DataArray>
<DataArray type="UInt8" Name="types" format="ascii">1</DataArray>
</Cells>
<PointData>
<DataArray Name="Points" NumberOfComponents="3" type="Float32" format="ascii">8.867316952090855 2.7141007774071557 4.243380232249912 8.5837475666528 7.885335563626745 9.990523805341981 7.723793061824998 9.044905251157816 7.1065147905474575 4.368576541455789 9.119283267456183 3.7950658234562686 7.1632127594565596 7.371010106327496 3.6919475739090752 9.837778172418194 8.469912129875649 1.7607809296342203 7.195984561015165 5.17559692278062 6.022394105566598 6.365498312684932 5.7124908758485295 3.2273444830157816 4.331352655975221 0.0408656217979442 0.34940570659792763 7.908754749284577 7.25109063375544 7.988764066413173 4.383072726530518 2.111272571330044 4.495126640947256 8.675116639162527 0.8010037291393715 5.781065155048262 6.969600250364149 1.9423395479043366 7.556793737137493 6.988243347060578 0.2853828661037276 2.8314618579277013 5.468518825487119 6.000723272063023 6.202366713738821 5.765024507117432 0.5678737960379123 1.1015262062375792 2.9725317108211557 8.528262014280365 0.27500824408735647 7.4709610139647795 5.538892669467878 1.6139122514266018 8.730561361212876 3.4794759100759216 3.020301220978226 8.238159307405436 5.910171968547394 3.6912708008539705 </DataArray>
<DataArray Name="forces" NumberOfComponents="3" type="Float32" format="ascii">-0.13561961071475853 0.7063541844238984 -1.155536327521532 0.017205623896836945 -0.0054347236732686585 -0.019871968116955005 0.037037945542679654 -0.11991462475929204 0.04891649804833313 0.0 0.0 0.0 0.09917728945249789 -0.5087095035404723 -0.06347531407775318 -0.04562379607996561 -0.021267903613395613 -0.06440500708395414 -0.21306849019197022 0.10177245304693314 0.022198120119265332 0.440801469436143 0.230740293103746 -0.05226201960747049 0.3393653665882967 0.044304879668675495 0.22872992287232755 0.012108336611259256 0.18488036592046853 0.006480644401779048 0.0 0.0 0.0 -0.01734147705302936 -0.004553712782178178 0.0017853171520311809 0.0 0.0 0.0 -0.06596653465541652 0.01523435309434113 -0.09329308574429827 0.21306849019197022 -0.10177245304693314 -0.022198120119265332 -0.3812927198222305 -0.1796438606998672 -0.14134418754678335 0.10789388788935035 0.12010462793685059 0.005907350418754102 -0.08784769542340183 0.0317744404116387 0.2451031733783734 0.13223297779697765 -0.7400635855162324 1.1826308431202979 -0.45213106346523907 0.24619477002508755 -0.12936583969314974 </DataArray>
</PointData>
<CellData/>
</Piece>
</UnstructuredGrid>
</VTKFile>
