<?xml version="1.0" ?>
<VTKFile type="UnstructuredGrid" version="0.1" byte_order="LittleEndian">
<UnstructuredGrid>
<Piece NumberOfPoints="20" NumberOfCells="0">
<Points>
<DataArray type="Float32" format="ascii" NumberOfComponents="3">7.641785811187598 1.334885595392364 2.880775064274715 0.48605423089104427 6.7345937920425785 1.0167434419632473 7.1319893023210374 9.068914166306286 8.02006926934194 4.429043956650701 9.74653821178238 2.9831189369705626 5.384294404250045 6.944542182194954 1.4689822703343831 0.11195326992431127 9.337562032734127 1.7571248355650324 3.0742781479125174 4.509467091149841 8.316412049628683 6.3078682602223495 6.633709143054562 0.5473799788951432 6.090438782327749 8.77519185284018 9.802466730514098 0.6287690962113324 7.310982857979254 6.792862592539991 4.39701110959207 2.9578532070771693 4.75219253815617 7.717430836698664 2.061240012419949 5.043065494238469 6.0527004225273595 0.9953318423924817 4.706938518969507 6.378615597690921 2.4495655975377533 4.731634543185405 4.610257804990852 5.468221301172382 3.931697799304411 7.0971251451222015 9.987547800609283 3.41399908730162 2.7937862200925316 7.321498025444983 1.4458724037852941 8.105036946306294 7.816361168326726 9.603130999413528 1.6829345683729606 5.408317358917599 2.1163924666362233 1.0664615904922083 4.039687026936556 9.696686546090081 </DataArray>
</Points>
<Cells>
<DataArray type="Int32" Name="connectivity" format="ascii">0</DataArray>
<DataArray type="Int32" Name="offsets" format="ascii">0</DataArray>
<DataArray type="UInt8" Name="types" format="ascii">1</DataArray>
</Cells>
<PointData>
<DataArray Name="Points" NumberOfComponents="3" type="Float32" format="ascii">7.641785811187598 1.334885595392364 2.880775064274715 0.48605423089104427 6.7345937920425785 1.0167434419632473 7.1319893023210374 9.068914166306286 8.02006926934194 4.429043956650701 9.74653821178238 2.9831189369705626 5.384294404250045 6.944542182194954 1.4689822703343831 0.11195326992431127 9.337562032734127 1.7571248355650324 3.0742781479125174 4.509467091149841 8.316412049628683 6.3078682602223495 6.633709143054562 0.5473799788951432 6.090438782327749 8.77519185284018 9.802466730514098 0.6287690962113324 7.310982857979254 6.792862592539991 4.39701110959207 2.9578532070771693 4.75219253815617 7.717430836698664 2.061240012419949 5.043065494238469 6.0527004225273595 0.9953318423924817 4.706938518969507 6.378615597690921 2.4495655975377533 4.731634543185405 4.610257804990852 5.468221301172382 3.931697799304411 7.0971251451222015 9.987547800609283 3.41399908730162 2.7937862200925316 7.321498025444983 1.4458724037852941 8.105036946306294 7.816361168326726 9.603130999413528 1.6829345683729606 5.408317358917599 2.1163924666362233 1.0664615904922083 4.039687026936556 9.696686546090081 </DataArray>
<DataArray Name="forces" NumberOfComponents="3" type="Float32" format="ascii">-0.36601769363759434 -0.8211162272640575 0.43525534951911005 0.12147281727059166 -0.07100204768969332 0.07739442747749128 -0.032096332761862766 -0.06576512278183215 0.175571054798776 0.0 0.0 0.0 1.3893551805829587 -0.46759389130975926 -1.3863893068954847 0.0 0.0 0.0 -0.03324078201856823 -0.007777531594443285 0.02285139222161405 -1.3505537029573018 0.5677228003480829 1.3379498138004993 0.15040387323390464 -0.08640769659799863 -0.09987830943878602 0.0 0.0 0.0 0.1507349389704274 -0.03866397268652448 -0.001563787393439789 -1.5684038330343886 0.29298251497344335 -0.42921992763710354 0.5588285387655736 1.1583236225202167 -0.13088278657065128 1.0045019011392624 -1.5439575521396027 0.3114667238298919 0.0 0.0 0.0 0.22035614779671964 0.9524316145965248 -0.18505557174780735 -0.07894790062989589 -0.06744016360918964 0.010794019810242285 -0.15710901809769873 0.05204391034150715 -0.027253252265004697 -0.04252491664069577 0.13844221129888296 -0.08818844728773358 0.03324078201856823 0.007777531594443285 -0.02285139222161405 </DataArray>
</PointData>
<CellData/>
</Piece>
</UnstructuredGrid>
</VTKFile>
