<?xml version="1.0" ?>
<VTKFile type="UnstructuredGrid" version="0.1" byte_order="LittleEndian">
<UnstructuredGrid>
<Piece NumberOfPoints="20" NumberOfCells="0">
<Points>
<DataArray type="Float32" format="ascii" NumberOfComponents="3">6.683615383344544 0.2595116130941467 1.8538136601509654 1.9581845984635604 5.851857507517633 1.8109716191694902 6.685699572500221 9.072692206332157 8.741555701544126 4.4723898721450945 0.22962887535707094 2.3617765230841377 3.9803923368057754 6.727732007066545 9.866159866234929 0.32183053232310277 0.0015133094577723938 1.7528562223486306 0.16294031649141782 4.5295237225613265 0.14303942985366724 6.310846066914225 7.248113413109229 8.388879382111243 7.441938708104715 7.797103378862439 9.363005067825696 2.7156593660035746 7.357571186230119 5.875109540950465 4.41497421405686 3.6064745799774873 4.950653161048328 6.929962309537886 3.0409838884514024 4.47028730757667 5.379913325722339 0.29740325184899064 2.493414572039179 5.945284569827119 4.064105728787722 6.202102631910279 3.9515601307586787 5.060019815226124 2.188308789220331 8.119873933254427 9.563579543817257 5.186616069480379 2.6229547729643357 7.498382461651378 2.475929812998096 8.576483644619989 9.5669962145531 8.061132283866957 3.958704648462125 5.794855960164108 1.268830745317178 2.994858925362786 2.064505319126267 6.581619361145968 </DataArray>
</Points>
<Cells>
<DataArray type="Int32" Name="connectivity" format="ascii">0</DataArray>
<DataArray type="Int32" Name="offsets" format="ascii">0</DataArray>
<DataArray type="UInt8" Name="types" format="ascii">1</DataArray>
</Cells>
<PointData>
<DataArray Name="Points" NumberOfComponents="3" type="Float32" format="ascii">6.683615383344544 0.2595116130941467 1.8538136601509654 1.9581845984635604 5.851857507517633 1.8109716191694902 6.685699572500221 9.072692206332157 8.741555701544126 4.4723898721450945 0.22962887535707094 2.3617765230841377 3.9803923368057754 6.727732007066545 9.866159866234929 0.32183053232310277 0.0015133094577723938 1.7528562223486306 0.16294031649141782 4.5295237225613265 0.14303942985366724 6.310846066914225 7.248113413109229 8.388879382111243 7.441938708104715 7.797103378862439 9.363005067825696 2.7156593660035746 7.357571186230119 5.875109540950465 4.41497421405686 3.6064745799774873 4.950653161048328 6.929962309537886 3.0409838884514024 4.47028730757667 5.379913325722339 0.29740325184899064 2.493414572039179 5.945284569827119 4.064105728787722 6.202102631910279 3.9515601307586787 5.060019815226124 2.188308789220331 8.119873933254427 9.563579543817257 5.186616069480379 2.6229547729643357 7.498382461651378 2.475929812998096 8.576483644619989 9.5669962145531 8.061132283866957 3.958704648462125 5.794855960164108 1.268830745317178 2.994858925362786 2.064505319126267 6.581619361145968 </DataArray>
<DataArray Name="forces" NumberOfComponents="3" type="Float32" format="ascii">-1.3165942278656788 0.03509733604477845 0.6265090770248295 0.3211586303678762 0.18561309129889833 0.07185338889504347 0.4391909374251281 -0.8228214234472631 0.19938843016121202 -98.31290414230821 -7.346616990144471 -14.288371868713542 -0.007319609187496502 -0.31484628400710124 0.4734023511809676 0.0 0.0 0.0 0.0 0.0 0.0 0.6325972806047492 0.5331509458432541 0.5489167645187555 -0.9209844051834775 0.354168359215758 -0.8177817175423377 0.0 0.0 0.0 0.12412876646884607 0.03712004547662056 0.10150939548337273 -0.036752822284898116 0.03818773762949473 0.06463952446431075 99.62949837017389 7.311519654099693 13.661862791688712 -0.08737594418394795 -0.07530778310611529 -0.1661489199476835 -0.0812272531865208 1.2237390340444485 -1.5026781176134187 0.0 0.0 0.0 -0.06908046002225782 -0.254823607482265 -0.11158363045245338 -0.15080381284639977 -0.06449788161174907 0.06947652286237034 -0.1635313079716011 -0.8396822338539806 1.0690060079898611 0.0 0.0 0.0 </DataArray>
</PointData>
<CellData/>
</Piece>
</UnstructuredGrid>
</VTKFile>
