<?xml version="1.0" ?>
<VTKFile type="UnstructuredGrid" version="0.1" byte_order="LittleEndian">
<UnstructuredGrid>
<Piece NumberOfPoints="20" NumberOfCells="0">
<Points>
<DataArray type="Float32" format="ascii" NumberOfComponents="3">6.273846588684679 9.782445613094394 1.4041763368095515 2.614222755731634 5.466380545178254 2.161435921658551 6.497928583182776 9.061375158894467 9.067852414643072 4.143668132757195 0.42971977152983637 2.0570910124730943 3.3642718792839497 6.629992025409089 9.1655903466743 0.413948606769633 0.29293083815548115 1.7509826681314768 8.933307375210985 4.642662000219155 0.9596819338277225 6.320332465041537 7.531104053265376 7.448977158863849 8.025051778480474 7.367567033705245 9.153709249217721 3.631624778536821 7.378019457000861 5.472294853148727 4.425652531349575 3.8914529167382703 5.039204565503388 6.579022261034565 3.4739096415330226 4.221526180270247 5.422318847391431 0.0072544168012836285 1.553498941287498 5.757498889671793 4.769319248391751 6.843335335180787 3.660590023797018 4.891941250539844 1.410563505174086 8.568178092419988 9.37865034560158 5.964223094303214 2.529103888843683 8.01455508834423 2.9828216318500713 8.775878453102319 0.3352420890209489 7.384390408886343 4.969607734622893 5.5154431539474205 0.8487552630815032 3.7930654948540883 1.0932352206058256 5.199462553742951 </DataArray>
</Points>
<Cells>
<DataArray type="Int32" Name="connectivity" format="ascii">0</DataArray>
<DataArray type="Int32" Name="offsets" format="ascii">0</DataArray>
<DataArray type="UInt8" Name="types" format="ascii">1</DataArray>
</Cells>
<PointData>
<DataArray Name="Points" NumberOfComponents="3" type="Float32" format="ascii">6.273846588684679 9.782445613094394 1.4041763368095515 2.614222755731634 5.466380545178254 2.161435921658551 6.497928583182776 9.061375158894467 9.067852414643072 4.143668132757195 0.42971977152983637 2.0570910124730943 3.3642718792839497 6.629992025409089 9.1655903466743 0.413948606769633 0.29293083815548115 1.7509826681314768 8.933307375210985 4.642662000219155 0.9596819338277225 6.320332465041537 7.531104053265376 7.448977158863849 8.025051778480474 7.367567033705245 9.153709249217721 3.631624778536821 7.378019457000861 5.472294853148727 4.425652531349575 3.8914529167382703 5.039204565503388 6.579022261034565 3.4739096415330226 4.221526180270247 5.422318847391431 0.0072544168012836285 1.553498941287498 5.757498889671793 4.769319248391751 6.843335335180787 3.660590023797018 4.891941250539844 1.410563505174086 8.568178092419988 9.37865034560158 5.964223094303214 2.529103888843683 8.01455508834423 2.9828216318500713 8.775878453102319 0.3352420890209489 7.384390408886343 4.969607734622893 5.5154431539474205 0.8487552630815032 3.7930654948540883 1.0932352206058256 5.199462553742951 </DataArray>
<DataArray Name="forces" NumberOfComponents="3" type="Float32" format="ascii">147.9875927765565 -39.079198463102365 -25.984350987533563 1.1973120673408557 -0.657305632941836 -0.8591902984049203 0.03832035147913372 -0.09956970068049406 -0.016635886708076406 1.3604585794023416 -0.44789927413172165 -0.5305617943680933 0.0 0.0 0.0 0.0 0.0 0.0 0.0 0.0 0.0 0.04158790883925233 0.0547531344073851 0.0963055736886555 -0.08394266916289297 0.05779883655525566 -0.03760612932467123 0.0 0.0 0.0 0.08458156371283071 0.007457728353228998 0.016389479413547178 -0.05661292637885562 0.010977374843399015 0.021497082264436394 -149.34401694711434 39.51411546695194 26.47284922424575 -0.027968637333975085 -0.018435103196628014 -0.03788656167798357 -0.40819043668475397 1.0331743738038288 0.5205126529844993 0.058795966930884055 0.27079267617866304 0.40202198104153497 0.0 0.0 0.0 -0.058795966930884055 -0.27079267617866304 -0.40202198104153497 -0.7891216306561017 -0.3758687408619929 0.338677645420421 0.0 0.0 0.0 </DataArray>
</PointData>
<CellData/>
</Piece>
</UnstructuredGrid>
</VTKFile>
