<?xml version="1.0" ?>
<VTKFile type="UnstructuredGrid" version="0.1" byte_order="LittleEndian">
<UnstructuredGrid>
<Piece NumberOfPoints="20" NumberOfCells="0">
<Points>
<DataArray type="Float32" format="ascii" NumberOfComponents="3">6.257051761943404 9.715064508156148 1.3418523374772786 2.6959627336650476 5.41843808041383 2.204535530527755 6.474764184586483 9.059806195410049 9.108188905811058 4.098368056885578 0.45448046272665693 2.0191916066976225 3.2880763235672554 6.617862968805707 9.078978487668344 0.42534465721662645 0.32898249119024925 1.7507508882283238 8.78118783608351 4.6566584881768245 1.060709872463688 6.321589510908314 7.566204003735268 7.3328215191878385 8.097046863154558 7.314510554976397 9.127728640708577 3.7449400873038208 7.380549139982809 5.422462108266038 4.427032464179395 3.9267184714250725 5.0501856421233615 6.53557821097612 3.5274745414315105 4.190763721441798 5.398300668388803 9.979713486372697 1.4441203472099438 5.734237553947912 4.856544580542124 6.922624714966907 3.6247233071350675 4.871960432210941 1.3140613561660925 8.623659237844514 9.355847350919488 6.060561882100898 2.5174884979334395 8.078382389114948 3.045519408004375 8.800518628621496 0.4302057321862277 7.300532802822769 5.093937147173206 5.480385427322046 0.7972841543809768 3.891812699327239 0.9730780950156679 5.028474082724021 </DataArray>
</Points>
<Cells>
<DataArray type="Int32" Name="connectivity" format="ascii">0</DataArray>
<DataArray type="Int32" Name="offsets" format="ascii">0</DataArray>
<DataArray type="UInt8" Name="types" format="ascii">1</DataArray>
</Cells>
<PointData>
<DataArray Name="Points" NumberOfComponents="3" type="Float32" format="ascii">6.257051761943404 9.715064508156148 1.3418523374772786 2.6959627336650476 5.41843808041383 2.204535530527755 6.474764184586483 9.059806195410049 9.108188905811058 4.098368056885578 0.45448046272665693 2.0191916066976225 3.2880763235672554 6.617862968805707 9.078978487668344 0.42534465721662645 0.32898249119024925 1.7507508882283238 8.78118783608351 4.6566584881768245 1.060709872463688 6.321589510908314 7.566204003735268 7.3328215191878385 8.097046863154558 7.314510554976397 9.127728640708577 3.7449400873038208 7.380549139982809 5.422462108266038 4.427032464179395 3.9267184714250725 5.0501856421233615 6.53557821097612 3.5274745414315105 4.190763721441798 5.398300668388803 9.979713486372697 1.4441203472099438 5.734237553947912 4.856544580542124 6.922624714966907 3.6247233071350675 4.871960432210941 1.3140613561660925 8.623659237844514 9.355847350919488 6.060561882100898 2.5174884979334395 8.078382389114948 3.045519408004375 8.800518628621496 0.4302057321862277 7.300532802822769 5.093937147173206 5.480385427322046 0.7972841543809768 3.891812699327239 0.9730780950156679 5.028474082724021 </DataArray>
<DataArray Name="forces" NumberOfComponents="3" type="Float32" format="ascii">122.18630491378724 -37.66915386819104 -14.600021288718567 1.118841057182436 -0.6583199665307802 -1.072718949421058 0.027012797032720012 -0.0638825633114822 0.010517511932269666 1.059421641311738 -0.38579787004105365 -0.46227621950792686 0.0 0.0 0.0 0.0 0.0 0.0 0.0 0.0 0.0 0.004248983157186297 0.04143172238314468 0.049247737517165234 -0.0370435373554877 0.03985244070400822 -0.00044617433765085446 0.0 0.0 0.0 0.08399959855641717 0.004596748456369379 0.007646512457270594 -0.06123647053049557 0.011594858300168024 0.02495936604602018 -123.23994479793339 38.03755013845642 15.00297843311471 -0.022763128025921606 -0.016191606756537403 -0.032605878503290775 -0.5945517239185474 0.8754365811003826 0.8883068732573436 0.06955283692026652 0.42250893751179913 0.4876387669094309 0.0 0.0 0.0 -0.06955283692026652 -0.42250893751179913 -0.4876387669094309 -0.5242893332638887 -0.21711661456960243 0.1844120761637144 0.0 0.0 0.0 </DataArray>
</PointData>
<CellData/>
</Piece>
</UnstructuredGrid>
</VTKFile>
