<?xml version="1.0" ?>
<VTKFile type="UnstructuredGrid" version="0.1" byte_order="LittleEndian">
<UnstructuredGrid>
<Piece NumberOfPoints="20" NumberOfCells="0">
<Points>
<DataArray type="Float32" format="ascii" NumberOfComponents="3">6.338510952917331 9.004228170026845 0.7269715577042197 3.4697617678945822 4.964187279693883 2.604075997079991 6.256405554708495 9.04533906835572 9.490465963918597 3.676428758523828 0.6856519209461278 1.6599524310252998 2.570568173901718 6.503647685790533 8.263383482028928 0.5326574655924794 0.6684688906009821 1.7485682941402994 7.348663544151124 4.788476086646978 2.0120060103819357 6.333397756959053 7.8968135135362605 6.239114909894883 8.77491716244915 6.814975097787315 8.883067479332343 4.812041033797761 7.404381971106875 4.953243051673286 4.440583185857822 4.258734357306844 5.153370072392175 6.125956466699482 4.0319685619806105 3.901348942105873 4.928209274178019 9.798189229164738 0.44204051260643196 5.515161387770245 5.6778938357319655 7.6692207747758045 3.2845168914328866 4.687199150301724 0.4111662691124941 9.146409373897285 9.144984219102403 6.970113560016241 2.408110233528645 8.67942280470588 3.6359234667907327 9.032244264788602 1.3205816372202561 6.508512252903626 6.263150845755986 5.149641828371457 0.3131301323303117 4.821646629240655 9.84161801937298 3.4182173212806353 </DataArray>
</Points>
<Cells>
<DataArray type="Int32" Name="connectivity" format="ascii">0</DataArray>
<DataArray type="Int32" Name="offsets" format="ascii">0</DataArray>
<DataArray type="UInt8" Name="types" format="ascii">1</DataArray>
</Cells>
<PointData>
<DataArray Name="Points" NumberOfComponents="3" type="Float32" format="ascii">6.338510952917331 9.004228170026845 0.7269715577042197 3.4697617678945822 4.964187279693883 2.604075997079991 6.256405554708495 9.04533906835572 9.490465963918597 3.676428758523828 0.6856519209461278 1.6599524310252998 2.570568173901718 6.503647685790533 8.263383482028928 0.5326574655924794 0.6684688906009821 1.7485682941402994 7.348663544151124 4.788476086646978 2.0120060103819357 6.333397756959053 7.8968135135362605 6.239114909894883 8.77491716244915 6.814975097787315 8.883067479332343 4.812041033797761 7.404381971106875 4.953243051673286 4.440583185857822 4.258734357306844 5.153370072392175 6.125956466699482 4.0319685619806105 3.901348942105873 4.928209274178019 9.798189229164738 0.44204051260643196 5.515161387770245 5.6778938357319655 7.6692207747758045 3.2845168914328866 4.687199150301724 0.4111662691124941 9.146409373897285 9.144984219102403 6.970113560016241 2.408110233528645 8.67942280470588 3.6359234667907327 9.032244264788602 1.3205816372202561 6.508512252903626 6.263150845755986 5.149641828371457 0.3131301323303117 4.821646629240655 9.84161801937298 3.4182173212806353 </DataArray>
<DataArray Name="forces" NumberOfComponents="3" type="Float32" format="ascii">-0.7303739152702046 0.4013060533173981 -2.5038780168170787 -0.007460704260051763 -0.011155647359386822 -0.08831904699258476 -0.11482615844908797 0.07557071193290457 2.584243660145135 0.17312026622467458 -0.12384437888030524 -0.06925941496245336 0.0 0.0 0.0 0.0 0.0 0.0 -0.11058778954746863 0.00945014133995881 -0.08368627652577425 -0.11306289104613854 -0.03659610726515513 -0.09556232775131375 0.0 0.0 0.0 0.11306289104613854 0.03659610726515513 0.09556232775131375 0.09997028148084551 -0.013450931402965082 -0.0742653904849979 -0.07123036238645332 0.031232757855237492 0.029856092460422395 0.7116200011527544 -0.3821737967300588 0.04960024159149096 0.0 0.0 0.0 0.007460704260051763 0.011155647359386822 0.08831904699258476 -0.004455241758733172 0.0849017054603204 -0.018013782278928584 0.0 0.0 0.0 0.004455241758733172 -0.0849017054603204 0.018013782278928584 0.08184787045307644 -0.027231967792231217 0.12809557455034976 -0.039540193658136456 0.029141410360061386 -0.060706469957093855 </DataArray>
</PointData>
<CellData/>
</Piece>
</UnstructuredGrid>
</VTKFile>
