<?xml version="1.0" ?>
<VTKFile type="UnstructuredGrid" version="0.1" byte_order="LittleEndian">
<UnstructuredGrid>
<Piece NumberOfPoints="20" NumberOfCells="0">
<Points>
<DataArray type="Float32" format="ascii" NumberOfComponents="3">6.360675126744032 8.821511058902086 0.5667182425093652 3.668553409288071 4.847402132087034 2.7058858211184904 6.200056431012332 9.041957724100746 9.590840132640379 3.568749539810376 0.7446313102181615 1.5674472455529413 2.3864289142530404 6.474335798999028 8.054071489431202 0.5601979208393786 0.7555937187683384 1.7480081593743462 6.9808969289498 4.822321798211018 2.256048612349008 6.336294447816167 7.9816188265709025 5.9583181929410625 8.948883173030008 6.6867764740334605 8.820278343624055 5.086032674302456 7.410541245494549 4.832936970099573 4.444249607527129 4.3439141519847 5.179726429306305 6.020668492590761 4.161484221611973 3.8271600966916344 4.806063298103135 9.751872795667632 0.18546709699681077 5.458938187012058 5.888682499464499 7.860824906958868 3.197075113400757 4.640011731186232 0.18016197856276825 9.280576951275435 9.091481409468527 7.203676508373706 2.380039705495556 8.833672114901782 3.787443092496966 9.091703213024402 1.548472680688528 6.305112160403592 6.563243415002827 5.064706789176798 0.18902754767950306 5.060225577247832 9.551278048881757 3.004861487153237 </DataArray>
</Points>
<Cells>
<DataArray type="Int32" Name="connectivity" format="ascii">0</DataArray>
<DataArray type="Int32" Name="offsets" format="ascii">0</DataArray>
<DataArray type="UInt8" Name="types" format="ascii">1</DataArray>
</Cells>
<PointData>
<DataArray Name="Points" NumberOfComponents="3" type="Float32" format="ascii">6.360675126744032 8.821511058902086 0.5667182425093652 3.668553409288071 4.847402132087034 2.7058858211184904 6.200056431012332 9.041957724100746 9.590840132640379 3.568749539810376 0.7446313102181615 1.5674472455529413 2.3864289142530404 6.474335798999028 8.054071489431202 0.5601979208393786 0.7555937187683384 1.7480081593743462 6.9808969289498 4.822321798211018 2.256048612349008 6.336294447816167 7.9816188265709025 5.9583181929410625 8.948883173030008 6.6867764740334605 8.820278343624055 5.086032674302456 7.410541245494549 4.832936970099573 4.444249607527129 4.3439141519847 5.179726429306305 6.020668492590761 4.161484221611973 3.8271600966916344 4.806063298103135 9.751872795667632 0.18546709699681077 5.458938187012058 5.888682499464499 7.860824906958868 3.197075113400757 4.640011731186232 0.18016197856276825 9.280576951275435 9.091481409468527 7.203676508373706 2.380039705495556 8.833672114901782 3.787443092496966 9.091703213024402 1.548472680688528 6.305112160403592 6.563243415002827 5.064706789176798 0.18902754767950306 5.060225577247832 9.551278048881757 3.004861487153237 </DataArray>
<DataArray Name="forces" NumberOfComponents="3" type="Float32" format="ascii">2.6840162527333287 -3.8825804591266007 17.80495996330968 0.0 0.0 0.0 -3.4350697328319257 4.287974681592832 -17.65714007324794 0.10877378587222321 -0.0872004508985028 -0.052409970884610746 0.0 0.0 0.0 0.0 0.0 0.0 -0.12737637486079526 -0.05748533530867867 0.05176126171142012 -0.2832933249928735 -0.1293988748590922 -0.25499698963627887 0.0 0.0 0.0 0.2832933249928735 0.1293988748590922 0.25499698963627887 0.10330005905724611 -0.01195432429785396 -0.08863138050537785 0.00028852555015829173 0.08324489081642988 -0.08085872076739599 0.6754812744289976 -0.3447588742055138 -0.06341180252694316 0.0 0.0 0.0 0.0 0.0 0.0 0.0 0.0 0.0 0.0 0.0 0.0 0.0 0.0 0.0 0.023787790253390857 -0.013805231209897245 0.11772883956135372 -0.033201580202623704 0.026565102637785228 -0.03199811665018924 </DataArray>
</PointData>
<CellData/>
</Piece>
</UnstructuredGrid>
</VTKFile>
